
     Program CP v.6.7MaX starts on 26May2021 at 12: 1:55 

     This program is part of the open-source Quantum ESPRESSO suite
     for quantum simulation of materials; please cite
         "P. Giannozzi et al., J. Phys.:Condens. Matter 21 395502 (2009);
         "P. Giannozzi et al., J. Phys.:Condens. Matter 29 465901 (2017);
          URL http://www.quantum-espresso.org", 
     in publications or presentations arising from this work. More details at
     http://www.quantum-espresso.org/quote

     Parallel version (MPI & OpenMP), running on      20 processor cores
     Number of MPI processes:                20
     Threads/MPI process:                     1

     MPI processes distributed on     1 nodes
     R & G space division:  proc/nbgrp/npool/nimage =      20
     Reading input from cp.water8.5-nve.in
Warning: card  &CELL ignored
Warning: card  / ignored

   Job Title: Water 8 molecules


   Atomic Pseudopotentials Parameters
   ----------------------------------

   Reading pseudopotential for specie #  1 from file :
   ../pseudo/O_ONCV_PBE-1.2.upf
     Message from routine read_pp_mesh:
     mesh size missing, using the one in header
   file type is xml

   Reading pseudopotential for specie #  2 from file :
   ../pseudo/H_ONCV_PBE-1.2.upf
     Message from routine read_pp_mesh:
     mesh size missing, using the one in header
   file type is xml


   Main Simulation Parameters (from input)
   ---------------------------------------
   Restart Mode       =       1   restart        
   Number of MD Steps =   10000
   Print out every           10 MD Steps
   Reads from unit    =      53
   Writes to unit     =      54
   MD Simulation time step            =       5.00
   Electronic fictitious mass (emass) =      50.00
   emass cut-off                      =       2.50

   Simulation Cell Parameters (from input)
   external pressure       =            0.00 [KBar]
   wmass (calculated)      =        19964.81 [AU]
   ibrav =    1
   alat  =    13.00000000
   a1    =    13.00000000    0.00000000    0.00000000
   a2    =     0.00000000   13.00000000    0.00000000
   a3    =     0.00000000    0.00000000   13.00000000
 
   b1    =     0.07692308    0.00000000    0.00000000
   b2    =     0.00000000    0.07692308    0.00000000
   b3    =     0.00000000    0.00000000    0.07692308
   omega =    2197.00000000

   Energy Cut-offs
   ---------------
   Ecutwfc =   50.0 Ry,      Ecutrho =  200.0 Ry,      Ecuts =  200.0 Ry
   Gcutwfc =   14.6     ,    Gcutrho =   29.3          Gcuts =   29.3
   NOTA BENE: refg, mmx =   0.050000  4800
   Eigenvalues calculated without the kinetic term contribution
   Orthog. with lagrange multipliers : eps =   0.10E-08,  max = 300
   Electron dynamics with newton equations
   Electron dynamics : the temperature is not controlled

   Electronic states
   -----------------
   Number of Electrons=    64, of States =    32
   Occupation numbers :
   2.00 2.00 2.00 2.00 2.00 2.00 2.00 2.00 2.00 2.00
   2.00 2.00 2.00 2.00 2.00 2.00 2.00 2.00 2.00 2.00
   2.00 2.00 2.00 2.00 2.00 2.00 2.00 2.00 2.00 2.00
   2.00 2.00


   Exchange and correlations functionals
   -------------------------------------
     Exchange-correlation= PBE
                           (   1   4   3   4   0   0   0)


   Ions Simulation Parameters
   --------------------------
   Ions are allowed to move
   Ions dynamics with newton equations
   the temperature is computed for    72 degrees of freedom
   ion dynamics with fricp =  0.0000 and greasp =  1.0000
   Ionic position (from input)
   sorted by specie, and converted to real a.u. coordinates
   Species   1 atoms =    8 mass =     29166.22 (a.u.),        16.00 (amu) rcmax =   0.50 (a.u.)
        4.842510     3.796199     3.732738
        3.735657    -4.474700     2.924274
       -4.546686    -3.542262     3.060744
       -3.436506     4.804268     3.377234
        3.614420    -4.282746    -3.989998
       -4.437095    -4.025366    -4.085110
       -3.558789     3.877301    -3.819233
        3.837783     3.820409    -4.507997
   Species   2 atoms =   16 mass =      1837.29 (a.u.),         1.01 (amu) rcmax =   0.50 (a.u.)
        4.004590     5.986780     3.533013
        4.365118     3.872322     5.879773
        6.059148    -3.795031     3.153403
        2.874962    -3.958672     4.675187
       -3.748838    -5.811626     3.320758
       -4.053948    -2.574364     4.768354
       -5.904151     4.217430     3.801415
       -2.303077     4.672005     5.082136
        3.119866    -4.561070    -2.002200
        5.914480    -3.952983    -3.866628
       -3.950822    -3.684809    -2.102720
       -3.940399    -6.190475    -4.165351
       -3.233219     3.435242    -1.818055
       -5.690475     3.479664    -3.789435
        2.013136     3.092241    -3.913112
        3.659354     6.200317    -4.387039
   Ionic position will be re-read from restart file

   All atoms are allowed to move
   Ionic temperature is not controlled


   Cell Dynamics Parameters (from STDIN)
   -------------------------------------
   Starting cell generated from CELLDM
   Cell parameters will be re-read from restart file
   Constant VOLUME Molecular dynamics
   cell parameters are not allowed to move

   Verbosity: iverbosity =  0



   Simulation dimensions initialization
   ------------------------------------

   unit vectors of full simulation cell
   in real space:                         in reciprocal space (units 2pi/alat):
   1    13.0000    0.0000    0.0000              1.0000    0.0000    0.0000
   2     0.0000   13.0000    0.0000              0.0000    1.0000    0.0000
   3     0.0000    0.0000   13.0000              0.0000    0.0000    1.0000
 
     Parallelization info
     --------------------
     sticks:   dense  smooth     PW     G-vecs:    dense   smooth      PW
     Min         133     133     32                 5246     5246     652
     Max         136     136     34                 5256     5256     666
     Sum        2701    2701    673               105015   105015   13205
 
 
   Real Mesh
   ---------
   Global Dimensions   Local  Dimensions   Processor Grid
   .X.   .Y.   .Z.     .X.   .Y.   .Z.     .X.   .Y.   .Z.
    60    60    60      60    60     3       1     1    20
   Array leading dimensions ( nr1x, nr2x, nr3x )   =     60    60    60
   Local number of cell to store the grid ( nrxx ) =      10800
   Number of x-y planes for each processors: 
  |  60,   3  |  60,   3  |  60,   3  |  60,   3  |  60,   3
  |  60,   3  |  60,   3  |  60,   3  |  60,   3  |  60,   3
  |  60,   3  |  60,   3  |  60,   3  |  60,   3  |  60,   3
  |  60,   3  |  60,   3  |  60,   3  |  60,   3  |  60,   3
 
   Smooth Real Mesh
   ----------------
   Global Dimensions   Local  Dimensions   Processor Grid
   .X.   .Y.   .Z.     .X.   .Y.   .Z.     .X.   .Y.   .Z.
    60    60    60      60    60     3       1     1    20
   Array leading dimensions ( nr1x, nr2x, nr3x )   =     60    60    60
   Local number of cell to store the grid ( nrxx ) =      10800
   Number of x-y planes for each processors: 
  |  60,   3  |  60,   3  |  60,   3  |  60,   3  |  60,   3
  |  60,   3  |  60,   3  |  60,   3  |  60,   3  |  60,   3
  |  60,   3  |  60,   3  |  60,   3  |  60,   3  |  60,   3
  |  60,   3  |  60,   3  |  60,   3  |  60,   3  |  60,   3
 
   Reciprocal Space Mesh
   ---------------------
   Large Mesh
     Global(ngm_g)    MinLocal       MaxLocal      Average
          52508           2623           2628        2625.40
   Smooth Mesh
     Global(ngms_g)   MinLocal       MaxLocal      Average
          52508           2623           2628        2625.40
   Wave function Mesh
     Global(ngw_g)    MinLocal       MaxLocal      Average
           6603            326            333         330.15


   System geometry initialization
   ------------------------------
   cell parameters read from restart file
   ibrav =    1       cell parameters 


   cell at current step : h(t)
      13.00000       0.00000       0.00000
       0.00000      13.00000       0.00000
       0.00000       0.00000      13.00000

   cell at previous step : h(t-dt)
      13.00000       0.00000       0.00000
       0.00000      13.00000       0.00000
       0.00000       0.00000      13.00000
 

   Matrix Multiplication Performances
   ortho mmul, time for parallel driver      =   0.00005 with   16 procs

   Constraints matrixes will be distributed block like on
   ortho sub-group =    4*   4 procs



   Pseudopotentials initialization
   -------------------------------


   Common initialization

   Specie:     1
   1  indv=  1   ang. mom=  0
   2  indv=  2   ang. mom=  0
   3  indv=  3   ang. mom=  1
   4  indv=  3   ang. mom=  1
   5  indv=  3   ang. mom=  1
   6  indv=  4   ang. mom=  1
   7  indv=  4   ang. mom=  1
   8  indv=  4   ang. mom=  1
 
                        dion 
   9.7572   0.0000   0.0000   0.0000
   0.0000   1.3761   0.0000   0.0000
   0.0000   0.0000  -4.8069   0.0000
   0.0000   0.0000   0.0000  -1.6162

   Specie:     2
   1  indv=  1   ang. mom=  0
   2  indv=  2   ang. mom=  0
 
                        dion 
 -12.0082   0.0000
   0.0000  -0.5168

   Cell parameters from input file are used in electron mass preconditioning
   init_tpiba2=    0.23360010
 
   Short Legend and Physical Units in the Output
   ---------------------------------------------
   NFI    [int]          - step index
   EKINC  [HARTREE A.U.] - kinetic energy of the fictitious electronic dynamics
   TEMPH  [K]            - Temperature of the fictitious cell dynamics
   TEMP   [K]            - Ionic temperature
   ETOT   [HARTREE A.U.] - Scf total energy (Kohn-Sham hamiltonian)
   ENTHAL [HARTREE A.U.] - Enthalpy ( ETOT + P * V )
   ECONS  [HARTREE A.U.] - Enthalpy + kinetic energy of ions and cell
   ECONT  [HARTREE A.U.] - Constant of motion for the CP lagrangian
 

   formf: eself=   242.55691
   formf:     vps(g=0)=  -0.0005593     rhops(g=0)=  -0.0026914
   formf:     vps(g=0)=  -0.0005508     rhops(g=0)=  -0.0026524
   formf:     vps(g=0)=  -0.0005508     rhops(g=0)=  -0.0026524
   formf:     vps(g=0)=  -0.0005265     rhops(g=0)=  -0.0025387
   formf:     vps(g=0)=  -0.0005265     rhops(g=0)=  -0.0025387
   formf: sum_g vps(g)=  -0.8825069 sum_g rhops(g)=  -4.3113902
   formf:     vps(g=0)=  -0.0002744     rhops(g=0)=  -0.0004486
   formf:     vps(g=0)=  -0.0002718     rhops(g=0)=  -0.0004421
   formf:     vps(g=0)=  -0.0002718     rhops(g=0)=  -0.0004421
   formf:     vps(g=0)=  -0.0002644     rhops(g=0)=  -0.0004231
   formf:     vps(g=0)=  -0.0002644     rhops(g=0)=  -0.0004231
   formf: sum_g vps(g)=  -1.1488875 sum_g rhops(g)=  -0.7185650
   Delta V(G=0):   0.022861Ry,    0.622068eV
 
  nfi     ekinc              temph  tempp     etot                 enthal               econs                econt              vnhh    xnhh0   vnhp    xnhp0
   6102    0.002151177681177    0.0  757.49    -137.006484361168    -137.006484361168    -136.920126406151    -136.917975228469   0.0000   0.0000   0.0000   0.0000
   6103    0.002153675143786    0.0  756.98    -137.006428648896    -137.006428648896    -136.920128696090    -136.917975020947   0.0000   0.0000   0.0000   0.0000
   6104    0.002165253330710    0.0  755.31    -137.006245107436    -137.006245107436    -136.920136333321    -136.917971079990   0.0000   0.0000   0.0000   0.0000
   6105    0.002181840622108    0.0  752.55    -137.005947814168    -137.005947814168    -136.920152973774    -136.917971133151   0.0000   0.0000   0.0000   0.0000
   6106    0.002177254872338    0.0  749.01    -137.005540805900    -137.005540805900    -136.920149786127    -136.917972531254   0.0000   0.0000   0.0000   0.0000
   6107    0.002139005563690    0.0  744.86    -137.005028255864    -137.005028255864    -136.920110373395    -136.917971367831   0.0000   0.0000   0.0000   0.0000
   6108    0.002094101418968    0.0  740.01    -137.004429072986    -137.004429072986    -136.920064418280    -136.917970316861   0.0000   0.0000   0.0000   0.0000
   6109    0.002073442299340    0.0  734.30    -137.003755915363    -137.003755915363    -136.920042104032    -136.917968661733   0.0000   0.0000   0.0000   0.0000
   6110    0.002078213011410    0.0  727.85    -137.003022795456    -137.003022795456    -136.920044316984    -136.917966103973   0.0000   0.0000   0.0000   0.0000
   6111    0.002081894853535    0.0  721.06    -137.002252628337    -137.002252628337    -136.920047465499    -136.917965570645   0.0000   0.0000   0.0000   0.0000
   6112    0.002054862606030    0.0  714.36    -137.001460414637    -137.001460414637    -136.920020200843    -136.917965338237   0.0000   0.0000   0.0000   0.0000
   6113    0.001996992113061    0.0  707.86    -137.000659962466    -137.000659962466    -136.919960767051    -136.917963774938   0.0000   0.0000   0.0000   0.0000
   6114    0.001938490012750    0.0  701.44    -136.999869910019    -136.999869910019    -136.919901899053    -136.917963409041   0.0000   0.0000   0.0000   0.0000
   6115    0.001907001684812    0.0  694.96    -136.999098604393    -136.999098604393    -136.919869538482    -136.917962536797   0.0000   0.0000   0.0000   0.0000
   6116    0.001907087306976    0.0  688.45    -136.998355147117    -136.998355147117    -136.919868495732    -136.917961408425   0.0000   0.0000   0.0000   0.0000
   6117    0.001916952753006    0.0  682.17    -136.997649544681    -136.997649544681    -136.919878634342    -136.917961681589   0.0000   0.0000   0.0000   0.0000
   6118    0.001904740114585    0.0  676.43    -136.996983014637    -136.996983014637    -136.919866042897    -136.917961302783   0.0000   0.0000   0.0000   0.0000
   6119    0.001862491276963    0.0  671.34    -136.996359355069    -136.996359355069    -136.919823444424    -136.917960953147   0.0000   0.0000   0.0000   0.0000
   6120    0.001814182072068    0.0  666.68    -136.995781264091    -136.995781264091    -136.919775829535    -136.917961647462   0.0000   0.0000   0.0000   0.0000
   6121    0.001789177045326    0.0  662.19    -136.995244666581    -136.995244666581    -136.919751002812    -136.917961825766   0.0000   0.0000   0.0000   0.0000
   6122    0.001792827040564    0.0  657.81    -136.994748725589    -136.994748725589    -136.919754628712    -136.917961801672   0.0000   0.0000   0.0000   0.0000
   6123    0.001798613648851    0.0  653.77    -136.994293795045    -136.994293795045    -136.919760882451    -136.917962268802   0.0000   0.0000   0.0000   0.0000
   6124    0.001776599730672    0.0  650.31    -136.993877034154    -136.993877034154    -136.919738260070    -136.917961660339   0.0000   0.0000   0.0000   0.0000
   6125    0.001730497768623    0.0  647.43    -136.993502224820    -136.993502224820    -136.919691734071    -136.917961236303   0.0000   0.0000   0.0000   0.0000
   6126    0.001690805125006    0.0  644.89    -136.993173882533    -136.993173882533    -136.919652592906    -136.917961787781   0.0000   0.0000   0.0000   0.0000
   6127    0.001678343950123    0.0  642.55    -136.992893671629    -136.992893671629    -136.919639755030    -136.917961411080   0.0000   0.0000   0.0000   0.0000
   6128    0.001685378157954    0.0  640.53    -136.992670481482    -136.992670481482    -136.919646468021    -136.917961089863   0.0000   0.0000   0.0000   0.0000
   6129    0.001686859154454    0.0  639.14    -136.992513051608    -136.992513051608    -136.919647332538    -136.917960473383   0.0000   0.0000   0.0000   0.0000
   6130    0.001670422992646    0.0  638.57    -136.992430459975    -136.992430459975    -136.919629715512    -136.917959292519   0.0000   0.0000   0.0000   0.0000
   6131    0.001647972530513    0.0  638.82    -136.992435035708    -136.992435035708    -136.919606703751    -136.917958731220   0.0000   0.0000   0.0000   0.0000
   6132    0.001635860018650    0.0  639.82    -136.992537007222    -136.992537007222    -136.919594547486    -136.917958687467   0.0000   0.0000   0.0000   0.0000
   6133    0.001636051877322    0.0  641.63    -136.992744382438    -136.992744382438    -136.919594877541    -136.917958825663   0.0000   0.0000   0.0000   0.0000
   6134    0.001639499965265    0.0  644.40    -136.993063165807    -136.993063165807    -136.919598167242    -136.917958667277   0.0000   0.0000   0.0000   0.0000
   6135    0.001640334361468    0.0  648.20    -136.993497278385    -136.993497278385    -136.919599061441    -136.917958727080   0.0000   0.0000   0.0000   0.0000
   6136    0.001640944488244    0.0  653.00    -136.994045375690    -136.994045375690    -136.919599680703    -136.917958736215   0.0000   0.0000   0.0000   0.0000
   6137    0.001646118753676    0.0  658.72    -136.994703592008    -136.994703592008    -136.919605574749    -136.917959455995   0.0000   0.0000   0.0000   0.0000
   6138    0.001655431159903    0.0  665.29    -136.995462911419    -136.995462911419    -136.919616372756    -136.917960941596   0.0000   0.0000   0.0000   0.0000
   6139    0.001665400168417    0.0  672.61    -136.996308990785    -136.996308990785    -136.919627933414    -136.917962533246   0.0000   0.0000   0.0000   0.0000
   6140    0.001675956792743    0.0  680.53    -136.997224423258    -136.997224423258    -136.919640377001    -136.917964420208   0.0000   0.0000   0.0000   0.0000
   6141    0.001690179606967    0.0  688.83    -136.998186653445    -136.998186653445    -136.919656047110    -136.917965867503   0.0000   0.0000   0.0000   0.0000
   6142    0.001709994584143    0.0  697.29    -136.999171822436    -136.999171822436    -136.919677648205    -136.917967653621   0.0000   0.0000   0.0000   0.0000
   6143    0.001732047030239    0.0  705.68    -137.000152545694    -137.000152545694    -136.919701831731    -136.917969784701   0.0000   0.0000   0.0000   0.0000
   6144    0.001750324021976    0.0  713.80    -137.001099708186    -137.001099708186    -136.919722568078    -136.917972244056   0.0000   0.0000   0.0000   0.0000
   6145    0.001762329436940    0.0  721.43    -137.001983364327    -137.001983364327    -136.919737057289    -136.917974727852   0.0000   0.0000   0.0000   0.0000
   6146    0.001771792419673    0.0  728.25    -137.002773089120    -137.002773089120    -136.919748715999    -136.917976923579   0.0000   0.0000   0.0000   0.0000
   6147    0.001785069777102    0.0  733.95    -137.003438633953    -137.003438633953    -136.919763959529    -136.917978889752   0.0000   0.0000   0.0000   0.0000
   6148    0.001804380757918    0.0  738.27    -137.003951297835    -137.003951297835    -136.919784867165    -136.917980486407   0.0000   0.0000   0.0000   0.0000
   6149    0.001824012656185    0.0  741.02    -137.004287156652    -137.004287156652    -136.919806502176    -136.917982489519   0.0000   0.0000   0.0000   0.0000
   6150    0.001834105245483    0.0  742.13    -137.004424823929    -137.004424823929    -136.919817936227    -136.917983830981   0.0000   0.0000   0.0000   0.0000
   6151    0.001831932568145    0.0  741.50    -137.004351294116    -137.004351294116    -136.919816328850    -136.917984396281   0.0000   0.0000   0.0000   0.0000
   6152    0.001824422501671    0.0  739.03    -137.004062273761    -137.004062273761    -136.919808847496    -136.917984424994   0.0000   0.0000   0.0000   0.0000
   6153    0.001819072651305    0.0  734.70    -137.003561733515    -137.003561733515    -136.919802644967    -136.917983572315   0.0000   0.0000   0.0000   0.0000
   6154    0.001816101244758    0.0  728.63    -137.002865946052    -137.002865946052    -136.919798224488    -136.917982123243   0.0000   0.0000   0.0000   0.0000
   6155    0.001809398508563    0.0  721.14    -137.002002987199    -137.002002987199    -136.919789203867    -136.917979805358   0.0000   0.0000   0.0000   0.0000
   6156    0.001794895313857    0.0  712.61    -137.001012818837    -137.001012818837    -136.919771570820    -136.917976675506   0.0000   0.0000   0.0000   0.0000
   6157    0.001775375192425    0.0  703.45    -136.999945583249    -136.999945583249    -136.919748130613    -136.917972755420   0.0000   0.0000   0.0000   0.0000
   6158    0.001756701959918    0.0  694.13    -136.998860186034    -136.998860186034    -136.919725577543    -136.917968875583   0.0000   0.0000   0.0000   0.0000
   6159    0.001741970216011    0.0  685.16    -136.997818546618    -136.997818546618    -136.919706999903    -136.917965029687   0.0000   0.0000   0.0000   0.0000
   6160    0.001732443254195    0.0  677.07    -136.996883397153    -136.996883397153    -136.919693598405    -136.917961155151   0.0000   0.0000   0.0000   0.0000
   6161    0.001729517025104    0.0  670.39    -136.996115071642    -136.996115071642    -136.919687367456    -136.917957850431   0.0000   0.0000   0.0000   0.0000
   6162    0.001732611998936    0.0  665.56    -136.995564789712    -136.995564789712    -136.919687522797    -136.917954910798   0.0000   0.0000   0.0000   0.0000
   6163    0.001739178310435    0.0  662.96    -136.995273462233    -136.995273462233    -136.919692205899    -136.917953027589   0.0000   0.0000   0.0000   0.0000
   6164    0.001747602214491    0.0  662.84    -136.995267007848    -136.995267007848    -136.919699980930    -136.917952378716   0.0000   0.0000   0.0000   0.0000
   6165    0.001760296677844    0.0  665.25    -136.995554686047    -136.995554686047    -136.919713245682    -136.917952949004   0.0000   0.0000   0.0000   0.0000
   6166    0.001781501241155    0.0  670.08    -136.996128914877    -136.996128914877    -136.919736106390    -136.917954605149   0.0000   0.0000   0.0000   0.0000
   6167    0.001811969978023    0.0  677.13    -136.996965734540    -136.996965734540    -136.919768915357    -136.917956945379   0.0000   0.0000   0.0000   0.0000
   6168    0.001848397718712    0.0  686.10    -136.998027076461    -136.998027076461    -136.919808367343    -136.917959969624   0.0000   0.0000   0.0000   0.0000
   6169    0.001887431589403    0.0  696.56    -136.999262605668    -136.999262605668    -136.919850785529    -136.917963353940   0.0000   0.0000   0.0000   0.0000
   6170    0.001927510583543    0.0  708.04    -137.000614551443    -137.000614551443    -136.919894863694    -136.917967353110   0.0000   0.0000   0.0000   0.0000
   6171    0.001966065632395    0.0  719.99    -137.002020031778    -137.002020031778    -136.919937371638    -136.917971306006   0.0000   0.0000   0.0000   0.0000
   6172    0.001999747905803    0.0  731.91    -137.003416775919    -137.003416775919    -136.919974775742    -136.917975027836   0.0000   0.0000   0.0000   0.0000
   6173    0.002027790407145    0.0  743.29    -137.004745174020    -137.004745174020    -136.920006043695    -136.917978253288   0.0000   0.0000   0.0000   0.0000
   6174    0.002053462966242    0.0  753.63    -137.005951496433    -137.005951496433    -136.920033961016    -136.917980498049   0.0000   0.0000   0.0000   0.0000
   6175    0.002079282376048    0.0  762.52    -137.006993114798    -137.006993114798    -136.920061673166    -136.917982390790   0.0000   0.0000   0.0000   0.0000
   6176    0.002100662359046    0.0  769.73    -137.007837162112    -137.007837162112    -136.920084100032    -136.917983437673   0.0000   0.0000   0.0000   0.0000
   6177    0.002110083158341    0.0  775.14    -137.008463280337    -137.008463280337    -136.920093669411    -136.917983586253   0.0000   0.0000   0.0000   0.0000
   6178    0.002105833808338    0.0  778.69    -137.008863396596    -137.008863396596    -136.920088762144    -136.917982928335   0.0000   0.0000   0.0000   0.0000
   6179    0.002093381464087    0.0  780.36    -137.009040564255    -137.009040564255    -136.920075169267    -136.917981787803   0.0000   0.0000   0.0000   0.0000
   6180    0.002079058779802    0.0  780.21    -137.009007284286    -137.009007284286    -136.920059160606    -136.917980101826   0.0000   0.0000   0.0000   0.0000
   6181    0.002064937757815    0.0  778.40    -137.008785114612    -137.008785114612    -136.920042898908    -136.917977961150   0.0000   0.0000   0.0000   0.0000
   6182    0.002048622859736    0.0  775.21    -137.008401944084    -137.008401944084    -136.920024332098    -136.917975709238   0.0000   0.0000   0.0000   0.0000
   6183    0.002026731113355    0.0  770.92    -137.007888407791    -137.007888407791    -136.919999736580    -136.917973005466   0.0000   0.0000   0.0000   0.0000
   6184    0.001998841306623    0.0  765.83    -137.007278664998    -137.007278664998    -136.919969523201    -136.917970681894   0.0000   0.0000   0.0000   0.0000
   6185    0.001967728137920    0.0  760.22    -137.006605030698    -137.006605030698    -136.919936277652    -136.917968549514   0.0000   0.0000   0.0000   0.0000
   6186    0.001938558280021    0.0  754.28    -137.005897362043    -137.005897362043    -136.919905152859    -136.917966594579   0.0000   0.0000   0.0000   0.0000
   6187    0.001914679670924    0.0  748.23    -137.005181921948    -137.005181921948    -136.919879777970    -136.917965098300   0.0000   0.0000   0.0000   0.0000
   6188    0.001892946103333    0.0  742.27    -137.004479254700    -137.004479254700    -136.919856906867    -136.917963960764   0.0000   0.0000   0.0000   0.0000
   6189    0.001867251668970    0.0  736.58    -137.003804653360    -137.003804653360    -136.919830601284    -136.917963349615   0.0000   0.0000   0.0000   0.0000
   6190    0.001837372489837    0.0  731.25    -137.003167045487    -137.003167045487    -136.919800390147    -136.917963017657   0.0000   0.0000   0.0000   0.0000
   6191    0.001811266296518    0.0  726.24    -137.002569493811    -137.002569493811    -136.919774406101    -136.917963139804   0.0000   0.0000   0.0000   0.0000
   6192    0.001795423244505    0.0  721.46    -137.002008648972    -137.002008648972    -136.919758883793    -136.917963460548   0.0000   0.0000   0.0000   0.0000
   6193    0.001785794229003    0.0  716.87    -137.001477280609    -137.001477280609    -136.919750025507    -136.917964231278   0.0000   0.0000   0.0000   0.0000
   6194    0.001771842125811    0.0  712.48    -137.000964067619    -137.000964067619    -136.919737085708    -136.917965243582   0.0000   0.0000   0.0000   0.0000
   6195    0.001750394195225    0.0  708.20    -137.000455225245    -137.000455225245    -136.919716467176    -136.917966072980   0.0000   0.0000   0.0000   0.0000
   6196    0.001730013242944    0.0  703.83    -136.999936941081    -136.999936941081    -136.919697058374    -136.917967045132   0.0000   0.0000   0.0000   0.0000
   6197    0.001718836785118    0.0  699.16    -136.999394381268    -136.999394381268    -136.919686619003    -136.917967782218   0.0000   0.0000   0.0000   0.0000
   6198    0.001714156286861    0.0  694.11    -136.998815032452    -136.998815032452    -136.919682556459    -136.917968400172   0.0000   0.0000   0.0000   0.0000
   6199    0.001706068999048    0.0  688.69    -136.998189278710    -136.998189278710    -136.919674930911    -136.917968861912   0.0000   0.0000   0.0000   0.0000

 * Physical Quantities at step:  6200

   from rhoofr: total integrated electronic density
   in g-space =     64.000000   in r-space =    64.000000


                total energy =     -136.99751088784 Hartree a.u.
              kinetic energy =       97.36082 Hartree a.u.
        electrostatic energy =     -185.23305 Hartree a.u.
                         esr =        0.01071 Hartree a.u.
                       eself =      242.55691 Hartree a.u.
      pseudopotential energy =       -9.35260 Hartree a.u.
  n-l pseudopotential energy =       -6.17307 Hartree a.u.
 exchange-correlation energy =      -33.59961 Hartree a.u.
           average potential =        0.00000 Hartree a.u.



   Eigenvalues (eV), kp =   1 , spin =  1

  -24.13  -23.40  -23.02  -22.72  -22.56  -22.47  -22.02  -21.49  -11.39  -11.35
  -10.52  -10.45  -10.38  -10.16  -10.04   -9.60   -8.50   -7.72   -7.56   -7.40
   -6.70   -6.67   -6.12   -6.03   -5.73   -5.49   -5.18   -5.04   -4.79   -4.39
   -4.21   -4.02
 
 
   CELL_PARAMETERS
   13.00000000    0.00000000    0.00000000
    0.00000000   13.00000000    0.00000000
    0.00000000    0.00000000   13.00000000

   System Density [g/cm^3] :              0.7351364820


   System Volume [A.U.^3] :           2197.0000000000


   Center of mass square displacement (a.u.):   0.000000

   ATOMIC_POSITIONS
   O       0.92483396202393E+01     0.27187279473928E+01     0.10048663176906E+01
   H       0.79515164491006E+01     0.34305381965749E+01     0.21709021933376E+01
   H       0.88288485824245E+01     0.86053366219391E+00     0.95206425756848E+00
   O       0.47758779917844E+01    -0.71751998092115E+01     0.37935927467422E+01
   H       0.59131972757889E+01    -0.61935430923806E+01     0.47085989290161E+01
   H       0.29846309717361E+01    -0.61882317158085E+01     0.33100820982685E+01
   O      -0.40311476148243E+01    -0.20216490602281E+01     0.32274012419226E+01
   H      -0.32357546106957E+01    -0.35775594240235E+01     0.35429520600917E+01
   H      -0.36486901958955E+01    -0.86710469065948E+00     0.46314856584428E+01
   O      -0.40315920106537E+00     0.70406621200167E+01     0.18948362618397E+01
   H      -0.14164275826132E+01     0.54912266410255E+01     0.13331755606059E+01
   H      -0.22100796216586E+00     0.80078010274449E+01     0.29216705456235E+00
   O      -0.10375086085495E-01    -0.24211700185173E+01    -0.19651948157050E+01
   H      -0.63124813811588E+00    -0.13253714776732E+01    -0.66565840999808E+00
   H       0.13022744475125E+01    -0.12651235196188E+01    -0.25731009003602E+01
   O      -0.57679705045077E+01    -0.37818975909148E+01    -0.32075698214434E+01
   H      -0.37869014960902E+01    -0.33276598383087E+01    -0.32610851679069E+01
   H      -0.59702019493709E+01    -0.57016983122069E+01    -0.27209930840197E+01
   O      -0.84543604422322E+01     0.47443873815046E+01    -0.17174267720497E+01
   H      -0.96757616933653E+01     0.41249880369554E+01    -0.60131355380949E+00
   H      -0.83756177206127E+01     0.33908503276798E+01    -0.29593632175090E+01
   O       0.46849808423969E+01     0.10656893638746E+01    -0.55302196802369E+01
   H       0.50798025953620E+01    -0.91452125089821E+00    -0.55609716170421E+01
   H       0.42316618016435E+01     0.13633332700878E+01    -0.72503011044640E+01
 
   ATOMIC_VELOCITIES
   O      -0.22845103880426E-03     0.11980604773551E-03    -0.24528801361982E-03
   H      -0.19538594018101E-02     0.16432412604135E-03    -0.17756475202656E-03
   H      -0.10700178212467E-02    -0.35528717867667E-03     0.37545022068736E-03
   O       0.38459478445735E-04    -0.15895580826294E-03     0.16756948961644E-04
   H       0.17548276795401E-02    -0.60412592711463E-03     0.10638720756185E-02
   H       0.32555286689610E-03     0.13305566094162E-02     0.12270672905308E-02
   O       0.40591089561557E-03     0.23576705035148E-03     0.34721074761143E-03
   H      -0.70077684615639E-03     0.74321161009060E-03    -0.19270021120563E-03
   H       0.91660242949925E-03     0.21989031588222E-03    -0.12208524739458E-02
   O       0.31079405094556E-04    -0.17935718752964E-03    -0.11670115767468E-03
   H       0.90382383806816E-03    -0.13872683516658E-02    -0.70326349812381E-03
   H      -0.78311855421105E-03     0.22857549516762E-02    -0.11579911743324E-02
   O      -0.45116829843481E-04     0.18541954117943E-03     0.10986655633568E-03
   H       0.16612910474478E-02    -0.64712389757221E-03    -0.28587200005411E-03
   H      -0.17122821773922E-02     0.27529746552294E-03     0.12811994932502E-02
   O      -0.27907108538500E-03    -0.15093965101198E-03     0.62771513514104E-04
   H       0.59746385022706E-03    -0.26244278101730E-03    -0.44437430711636E-04
   H       0.65873395371885E-03     0.19510077391571E-02     0.16367649855479E-02
   O       0.17869506108360E-03    -0.35946404980083E-03     0.21851891349046E-03
   H      -0.12247155477455E-02    -0.60657097785339E-03    -0.43425494664991E-03
   H      -0.21516385438043E-02     0.75173080334296E-03     0.23081267804811E-02
   O      -0.34104650590083E-04     0.11453694314026E-03    -0.33687495916812E-03
   H       0.79265598613527E-03    -0.81620839652757E-03    -0.16314306065854E-02
   H       0.91549021051633E-03     0.24020262125880E-04    -0.29372269494426E-02
 


   Partial temperatures (for each ionic specie) 
   Species  Temp (K)   Mean Square Displacement (a.u.)
        1   3.96E+02     1.4743E+01
        2   8.26E+02     2.1428E+01
 
  nfi     ekinc              temph  tempp     etot                 enthal               econs                econt              vnhh    xnhh0   vnhp    xnhp0
   6200    0.001689166571583    0.0  682.89    -136.997510887840    -136.997510887840    -136.919658179015    -136.917969012443   0.0000   0.0000   0.0000   0.0000
   6201    0.001667268331455    0.0  676.66    -136.996778242518    -136.996778242518    -136.919636023601    -136.917968755270   0.0000   0.0000   0.0000   0.0000
   6202    0.001646832316611    0.0  669.97    -136.995995165421    -136.995995165421    -136.919615022966    -136.917968190649   0.0000   0.0000   0.0000   0.0000
   6203    0.001629671899066    0.0  662.89    -136.995170322211    -136.995170322211    -136.919597073054    -136.917967401154   0.0000   0.0000   0.0000   0.0000
   6204    0.001614097275220    0.0  655.56    -136.994316946255    -136.994316946255    -136.919580166626    -136.917966069350   0.0000   0.0000   0.0000   0.0000
   6205    0.001599122454418    0.0  648.13    -136.993454368256    -136.993454368256    -136.919563834850    -136.917964712395   0.0000   0.0000   0.0000   0.0000
   6206    0.001583630001349    0.0  640.83    -136.992604791866    -136.992604791866    -136.919546672966    -136.917963042965   0.0000   0.0000   0.0000   0.0000
   6207    0.001566072148185    0.0  633.89    -136.991794113623    -136.991794113623    -136.919527201343    -136.917961129195   0.0000   0.0000   0.0000   0.0000
   6208    0.001546784776789    0.0  627.56    -136.991050767775    -136.991050767775    -136.919506176535    -136.917959391758   0.0000   0.0000   0.0000   0.0000
   6209    0.001529479404986    0.0  622.04    -136.990402714661    -136.990402714661    -136.919487059535    -136.917957580130   0.0000   0.0000   0.0000   0.0000
   6210    0.001518769561151    0.0  617.55    -136.989878181748    -136.989878181748    -136.919474740277    -136.917955970716   0.0000   0.0000   0.0000   0.0000
   6211    0.001514347682407    0.0  614.31    -136.989503282150    -136.989503282150    -136.919468825409    -136.917954477727   0.0000   0.0000   0.0000   0.0000
   6212    0.001511026002681    0.0  612.57    -136.989300829616    -136.989300829616    -136.919464298324    -136.917953272321   0.0000   0.0000   0.0000   0.0000
   6213    0.001505944284633    0.0  612.52    -136.989288616462    -136.989288616462    -136.919458360999    -136.917952416714   0.0000   0.0000   0.0000   0.0000
   6214    0.001503278966680    0.0  614.21    -136.989478931366    -136.989478931366    -136.919455488248    -136.917952209281   0.0000   0.0000   0.0000   0.0000
   6215    0.001509368946694    0.0  617.65    -136.989877030636    -136.989877030636    -136.919461933698    -136.917952564751   0.0000   0.0000   0.0000   0.0000
   6216    0.001525062386838    0.0  622.80    -136.990481000819    -136.990481000819    -136.919478323620    -136.917953261233   0.0000   0.0000   0.0000   0.0000
   6217    0.001544904491654    0.0  629.64    -136.991281676394    -136.991281676394    -136.919499387482    -136.917954482991   0.0000   0.0000   0.0000   0.0000
   6218    0.001563939059122    0.0  638.05    -136.992261365739    -136.992261365739    -136.919519857825    -136.917955918766   0.0000   0.0000   0.0000   0.0000
   6219    0.001583744813815    0.0  647.82    -136.993396354584    -136.993396354584    -136.919541818551    -136.917958073737   0.0000   0.0000   0.0000   0.0000
   6220    0.001608894456582    0.0  658.62    -136.994655423907    -136.994655423907    -136.919569651866    -136.917960757409   0.0000   0.0000   0.0000   0.0000
   6221    0.001640666473153    0.0  670.12    -136.996001350922    -136.996001350922    -136.919604289813    -136.917963623340   0.0000   0.0000   0.0000   0.0000
   6222    0.001675803257857    0.0  681.99    -136.997392888582    -136.997392888582    -136.919642545569    -136.917966742311   0.0000   0.0000   0.0000   0.0000
   6223    0.001709990033242    0.0  693.87    -136.998784643735    -136.998784643735    -136.919679948290    -136.917969958257   0.0000   0.0000   0.0000   0.0000
   6224    0.001741922874946    0.0  705.35    -137.000129046249    -137.000129046249    -136.919715187677    -136.917973264802   0.0000   0.0000   0.0000   0.0000
   6225    0.001773023660482    0.0  716.01    -137.001378108619    -137.001378108619    -136.919749541527    -136.917976517867   0.0000   0.0000   0.0000   0.0000
   6226    0.001803766429309    0.0  725.42    -137.002485218568    -137.002485218568    -136.919783545524    -136.917979779095   0.0000   0.0000   0.0000   0.0000
   6227    0.001831898428374    0.0  733.22    -137.003405871831    -137.003405871831    -136.919814463572    -136.917982565144   0.0000   0.0000   0.0000   0.0000
   6228    0.001855122032614    0.0  739.10    -137.004101515441    -137.004101515441    -136.919840006641    -136.917984884608   0.0000   0.0000   0.0000   0.0000
   6229    0.001873276288648    0.0  742.78    -137.004540934178    -137.004540934178    -136.919859910052    -136.917986633764   0.0000   0.0000   0.0000   0.0000
   6230    0.001887780201492    0.0  744.06    -137.004702134817    -137.004702134817    -136.919875298977    -136.917987518776   0.0000   0.0000   0.0000   0.0000
   6231    0.001899090414831    0.0  742.85    -137.004575197379    -137.004575197379    -136.919886803285    -136.917987712870   0.0000   0.0000   0.0000   0.0000
   6232    0.001904849811895    0.0  739.18    -137.004162649127    -137.004162649127    -136.919891750055    -136.917986900243   0.0000   0.0000   0.0000   0.0000
   6233    0.001902532043072    0.0  733.25    -137.003481981806    -137.003481981806    -136.919887692307    -136.917985160264   0.0000   0.0000   0.0000   0.0000
   6234    0.001892915198373    0.0  725.32    -137.002565453563    -137.002565453563    -136.919875284155    -136.917982368956   0.0000   0.0000   0.0000   0.0000
   6235    0.001880072101018    0.0  715.77    -137.001459982509    -137.001459982509    -136.919858699405    -136.917978627304   0.0000   0.0000   0.0000   0.0000
   6236    0.001867169482944    0.0  705.09    -137.000225306017    -137.000225306017    -136.919841465972    -136.917974296489   0.0000   0.0000   0.0000   0.0000
   6237    0.001853511677367    0.0  693.89    -136.998930232730    -136.998930232730    -136.919823080700    -136.917969569022   0.0000   0.0000   0.0000   0.0000
   6238    0.001837637211461    0.0  682.83    -136.997649086352    -136.997649086352    -136.919802476260    -136.917964839049   0.0000   0.0000   0.0000   0.0000
   6239    0.001822004410091    0.0  672.55    -136.996456539946    -136.996456539946    -136.919782291385    -136.917960286974   0.0000   0.0000   0.0000   0.0000
   6240    0.001812403380931    0.0  663.60    -136.995423204993    -136.995423204993    -136.919768851096    -136.917956447715   0.0000   0.0000   0.0000   0.0000
   6241    0.001811973949688    0.0  656.50    -136.994609554662    -136.994609554662    -136.919765506223    -136.917953532273   0.0000   0.0000   0.0000   0.0000
   6242    0.001818515033921    0.0  651.65    -136.994061716326    -136.994061716326    -136.919770283457    -136.917951768423   0.0000   0.0000   0.0000   0.0000
   6243    0.001828476311549    0.0  649.34    -136.993807684785    -136.993807684785    -136.919779759302    -136.917951282991   0.0000   0.0000   0.0000   0.0000
   6244    0.001841917064815    0.0  649.63    -136.993855276692    -136.993855276692    -136.919793896883    -136.917951979818   0.0000   0.0000   0.0000   0.0000
   6245    0.001861661890830    0.0  652.40    -136.994192852127    -136.994192852127    -136.919815719446    -136.917954057555   0.0000   0.0000   0.0000   0.0000
   6246    0.001888324789027    0.0  657.38    -136.994789790177    -136.994789790177    -136.919845446787    -136.917957121998   0.0000   0.0000   0.0000   0.0000
   6247    0.001919449643931    0.0  664.18    -136.995600465615    -136.995600465615    -136.919880381395    -136.917960931751   0.0000   0.0000   0.0000   0.0000
   6248    0.001952510013847    0.0  672.34    -136.996567797537    -136.996567797537    -136.919917534600    -136.917965024587   0.0000   0.0000   0.0000   0.0000
   6249    0.001986388265226    0.0  681.31    -136.997628591620    -136.997628591620    -136.919955436458    -136.917969048193   0.0000   0.0000   0.0000   0.0000
   6250    0.002019310833462    0.0  690.56    -136.998719200480    -136.998719200480    -136.919992123296    -136.917972812462   0.0000   0.0000   0.0000   0.0000
   6251    0.002047729945845    0.0  699.59    -136.999780190715    -136.999780190715    -136.920023730008    -136.917976000062   0.0000   0.0000   0.0000   0.0000
   6252    0.002069063765505    0.0  707.98    -137.000760633420    -137.000760633420    -136.920047516883    -136.917978453117   0.0000   0.0000   0.0000   0.0000
   6253    0.002083886436139    0.0  715.38    -137.001620868472    -137.001620868472    -136.920063703060    -136.917979816624   0.0000   0.0000   0.0000   0.0000
   6254    0.002093815429500    0.0  721.56    -137.002335551066    -137.002335551066    -136.920074126973    -136.917980311544   0.0000   0.0000   0.0000   0.0000
   6255    0.002098168526802    0.0  726.41    -137.002893016768    -137.002893016768    -136.920077966184    -136.917979797657   0.0000   0.0000   0.0000   0.0000
   6256    0.002095721416355    0.0  729.98    -137.003295538428    -137.003295538428    -136.920074128217    -136.917978406801   0.0000   0.0000   0.0000   0.0000
   6257    0.002087608302515    0.0  732.36    -137.003557456411    -137.003557456411    -136.920064121800    -136.917976513498   0.0000   0.0000   0.0000   0.0000
   6258    0.002075917996847    0.0  733.75    -137.003701873094    -137.003701873094    -136.920050104462    -136.917974186466   0.0000   0.0000   0.0000   0.0000
   6259    0.002061073333071    0.0  734.40    -137.003758809566    -137.003758809566    -136.920032877039    -136.917971803706   0.0000   0.0000   0.0000   0.0000
   6260    0.002042729075041    0.0  734.60    -137.003760914442    -137.003760914442    -136.920012123202    -136.917969394126   0.0000   0.0000   0.0000   0.0000
   6261    0.002023587574962    0.0  734.61    -137.003740343705    -137.003740343705    -136.919990683850    -136.917967096275   0.0000   0.0000   0.0000   0.0000
   6262    0.002008396789871    0.0  734.64    -137.003725932083    -137.003725932083    -136.919973574366    -136.917965177576   0.0000   0.0000   0.0000   0.0000
   6263    0.001997544363856    0.0  734.87    -137.003740794266    -137.003740794266    -136.919961500432    -136.917963956068   0.0000   0.0000   0.0000   0.0000
   6264    0.001985639082818    0.0  735.50    -137.003800211151    -137.003800211151    -136.919949012095    -136.917963373013   0.0000   0.0000   0.0000   0.0000
   6265    0.001969573166783    0.0  736.62    -137.003911159117    -137.003911159117    -136.919932858402    -136.917963285235   0.0000   0.0000   0.0000   0.0000
   6266    0.001954460488111    0.0  738.16    -137.004072065050    -137.004072065050    -136.919918207463    -136.917963746974   0.0000   0.0000   0.0000   0.0000
   6267    0.001947691717467    0.0  739.97    -137.004272634611    -137.004272634611    -136.919912259749    -136.917964568031   0.0000   0.0000   0.0000   0.0000
   6268    0.001948996911708    0.0  741.91    -137.004496200020    -137.004496200020    -136.919914930914    -136.917965934002   0.0000   0.0000   0.0000   0.0000
   6269    0.001950047162121    0.0  743.85    -137.004720260681    -137.004720260681    -136.919917636833    -136.917967589671   0.0000   0.0000   0.0000   0.0000
   6270    0.001945127761180    0.0  745.62    -137.004918850338    -137.004918850338    -136.919914349055    -136.917969221294   0.0000   0.0000   0.0000   0.0000
   6271    0.001937466638107    0.0  746.95    -137.005065095438    -137.005065095438    -136.919908345925    -136.917970879287   0.0000   0.0000   0.0000   0.0000
   6272    0.001932572911276    0.0  747.57    -137.005132104621    -137.005132104621    -136.919904954257    -136.917972381345   0.0000   0.0000   0.0000   0.0000
   6273    0.001930070414023    0.0  747.26    -137.005095474179    -137.005095474179    -136.919903733345    -136.917973662931   0.0000   0.0000   0.0000   0.0000
   6274    0.001925073722766    0.0  745.89    -137.004934999006    -137.004934999006    -136.919899681257    -136.917974607534   0.0000   0.0000   0.0000   0.0000
   6275    0.001915040057559    0.0  743.35    -137.004635819411    -137.004635819411    -136.919890225742    -136.917975185684   0.0000   0.0000   0.0000   0.0000
   6276    0.001901465832458    0.0  739.55    -137.004188968952    -137.004188968952    -136.919876666036    -136.917975200204   0.0000   0.0000   0.0000   0.0000
   6277    0.001885704853096    0.0  734.46    -137.003592815789    -137.003592815789    -136.919860457446    -136.917974752593   0.0000   0.0000   0.0000   0.0000
   6278    0.001866595448292    0.0  728.14    -137.002852734488    -137.002852734488    -136.919840568611    -136.917973973163   0.0000   0.0000   0.0000   0.0000
   6279    0.001843945291280    0.0  720.70    -137.001980615121    -137.001980615121    -136.919816646220    -136.917972700929   0.0000   0.0000   0.0000   0.0000
   6280    0.001821029249335    0.0  712.28    -137.000995708380    -137.000995708380    -136.919792204833    -136.917971175583   0.0000   0.0000   0.0000   0.0000
   6281    0.001800091201032    0.0  703.07    -136.999922898937    -136.999922898937    -136.919769348880    -136.917969257679   0.0000   0.0000   0.0000   0.0000
   6282    0.001778541442420    0.0  693.36    -136.998792532530    -136.998792532530    -136.919745498617    -136.917966957175   0.0000   0.0000   0.0000   0.0000
   6283    0.001752390785468    0.0  683.50    -136.997639523873    -136.997639523873    -136.919716854446    -136.917964463661   0.0000   0.0000   0.0000   0.0000
   6284    0.001722381267914    0.0  673.81    -136.996501719964    -136.996501719964    -136.919684267426    -136.917961886158   0.0000   0.0000   0.0000   0.0000
   6285    0.001694017102046    0.0  664.58    -136.995418905323    -136.995418905323    -136.919653374183    -136.917959357081   0.0000   0.0000   0.0000   0.0000
   6286    0.001670936129956    0.0  656.14    -136.994431358945    -136.994431358945    -136.919627808255    -136.917956872125   0.0000   0.0000   0.0000   0.0000
   6287    0.001651186060420    0.0  648.85    -136.993578468781    -136.993578468781    -136.919605728250    -136.917954542189   0.0000   0.0000   0.0000   0.0000
   6288    0.001631801201931    0.0  643.06    -136.992896896132    -136.992896896132    -136.919584171221    -136.917952370019   0.0000   0.0000   0.0000   0.0000
   6289    0.001614773653843    0.0  639.04    -136.992419702115    -136.992419702115    -136.919565442331    -136.917950668677   0.0000   0.0000   0.0000   0.0000
   6290    0.001605165623657    0.0  636.98    -136.992174051058    -136.992174051058    -136.919554619090    -136.917949453466   0.0000   0.0000   0.0000   0.0000
   6291    0.001604722257140    0.0  637.05    -136.992180264751    -136.992180264751    -136.919553412349    -136.917948690092   0.0000   0.0000   0.0000   0.0000
   6292    0.001609977237205    0.0  639.38    -136.992450980033    -136.992450980033    -136.919558544829    -136.917948567592   0.0000   0.0000   0.0000   0.0000
   6293    0.001617244307085    0.0  644.03    -136.992989462479    -136.992989462479    -136.919566270320    -136.917949026013   0.0000   0.0000   0.0000   0.0000
   6294    0.001627838171769    0.0  650.95    -136.993789759322    -136.993789759322    -136.919578022804    -136.917950184632   0.0000   0.0000   0.0000   0.0000
   6295    0.001645854447285    0.0  659.95    -136.994836016730    -136.994836016730    -136.919597821775    -136.917951967327   0.0000   0.0000   0.0000   0.0000
   6296    0.001672093773994    0.0  670.81    -136.996102618974    -136.996102618974    -136.919626396243    -136.917954302469   0.0000   0.0000   0.0000   0.0000
   6297    0.001702686247115    0.0  683.26    -136.997554853731    -136.997554853731    -136.919659832617    -136.917957146370   0.0000   0.0000   0.0000   0.0000
   6298    0.001733918515601    0.0  696.95    -136.999150098708    -136.999150098708    -136.919694438338    -136.917960519822   0.0000   0.0000   0.0000   0.0000
   6299    0.001766383618435    0.0  711.44    -137.000838922578    -137.000838922578    -136.919730703780    -136.917964320161   0.0000   0.0000   0.0000   0.0000

 * Physical Quantities at step:  6300

   from rhoofr: total integrated electronic density
   in g-space =     64.000000   in r-space =    64.000000


                total energy =     -137.00256661379 Hartree a.u.
              kinetic energy =       97.68689 Hartree a.u.
        electrostatic energy =     -185.32398 Hartree a.u.
                         esr =        0.01249 Hartree a.u.
                       eself =      242.55691 Hartree a.u.
      pseudopotential energy =       -9.40139 Hartree a.u.
  n-l pseudopotential energy =       -6.30152 Hartree a.u.
 exchange-correlation energy =      -33.66256 Hartree a.u.
           average potential =        0.00000 Hartree a.u.



   Eigenvalues (eV), kp =   1 , spin =  1

  -24.23  -23.79  -22.81  -22.74  -22.48  -22.33  -22.04  -21.91  -12.76  -11.17
  -11.12  -10.67  -10.43  -10.29  -10.13   -9.93   -7.94   -7.79   -7.50   -6.99
   -6.81   -6.55   -6.17   -5.86   -5.81   -5.56   -5.04   -4.87   -4.76   -4.67
   -4.48   -4.06
 
 
   CELL_PARAMETERS
   13.00000000    0.00000000    0.00000000
    0.00000000   13.00000000    0.00000000
    0.00000000    0.00000000   13.00000000

   System Density [g/cm^3] :              0.7351364820


   System Volume [A.U.^3] :           2197.0000000000


   Center of mass square displacement (a.u.):   0.000000

   ATOMIC_POSITIONS
   O       0.90890689154716E+01     0.27666506807616E+01     0.93884965593129E+00
   H       0.74353641959023E+01     0.37535892891868E+01     0.11375103303365E+01
   H       0.87406862321963E+01     0.94361741360453E+00     0.10422494533753E+01
   O       0.48111388230500E+01    -0.72520770937892E+01     0.38197723917585E+01
   H       0.61077514051223E+01    -0.65641080225169E+01     0.51494701325592E+01
   H       0.35398735548120E+01    -0.58701833713691E+01     0.39174026703059E+01
   O      -0.38721704557422E+01    -0.18828496813108E+01     0.33701990888345E+01
   H      -0.29522352365963E+01    -0.34591464729365E+01     0.34927391151785E+01
   H      -0.29252782810887E+01    -0.89642545442452E+00     0.44888870822364E+01
   O      -0.39805620860527E+00     0.69573777481894E+01     0.18069163722398E+01
   H      -0.89954655336241E+00     0.52598503540631E+01     0.11408847984338E+01
   H      -0.37073005983279E+00     0.82011759154306E+01     0.24935728726228E+00
   O      -0.50579622395499E-01    -0.22892663567237E+01    -0.18884265684780E+01
   H      -0.64633370752433E+00    -0.15297704319909E+01    -0.39832439183363E+00
   H       0.12197643958178E+01    -0.14423786045986E+01    -0.27561018175134E+01
   O      -0.58539923016541E+01    -0.38261363677623E+01    -0.31937331039319E+01
   H      -0.39779125747044E+01    -0.35428291048117E+01    -0.32256652904038E+01
   H      -0.61741160613217E+01    -0.50015697785715E+01    -0.19409686660503E+01
   O      -0.84377148454561E+01     0.45286105600091E+01    -0.15826490307248E+01
   H      -0.98799628958392E+01     0.47934010519810E+01    -0.38481189313253E+00
   H      -0.86342754109045E+01     0.34865765916730E+01    -0.29515583842555E+01
   O       0.46508164088425E+01     0.10302257717922E+01    -0.57925353379535E+01
   H       0.55996110413164E+01    -0.63214285049047E+00    -0.57086119933590E+01
   H       0.47934572135466E+01     0.19838595203567E+01    -0.75562909600695E+01
 
   ATOMIC_VELOCITIES
   O      -0.38422675576988E-03     0.84995834319179E-04    -0.65774921705405E-04
   H       0.21410119996139E-03     0.32262213906230E-03    -0.31716310405070E-02
   H       0.23521894879548E-03     0.10622651731626E-02     0.20147663264422E-04
   O       0.23024503974217E-04     0.27552214056781E-04     0.15029977465549E-03
   H       0.45401087511848E-03    -0.13281555969298E-02     0.94800246648174E-03
   H       0.20388158752835E-02    -0.24916549943999E-02    -0.17378922579653E-04
   O       0.28157710973233E-03     0.31736370559507E-03     0.29235041279990E-03
   H       0.13833052417074E-02    -0.70678435678018E-03    -0.48576126117155E-03
   H       0.16369021042779E-02    -0.89265934920865E-04     0.30674476453602E-04
   O       0.22869031271517E-04    -0.18956069804466E-03    -0.11682292233306E-03
   H       0.19621097769202E-03     0.76845812138954E-03    -0.22262366054224E-03
   H       0.34635901094079E-03    -0.11853582958054E-02    -0.80657082075983E-03
   O      -0.14764423737400E-03     0.22729231485245E-03     0.13635262137345E-03
   H      -0.56231659667511E-03     0.11624538447602E-02     0.10373973661489E-02
   H       0.68788862304685E-03    -0.24345343536224E-03    -0.68248618907522E-03
   O       0.38696629643881E-04    -0.12376163254943E-03     0.73404029180069E-04
   H      -0.31018641625010E-02    -0.55830161604088E-03     0.30026880989227E-03
   H      -0.13322542482833E-02     0.23702881368712E-02    -0.23504496733171E-03
   O      -0.12448400693865E-04    -0.43553204386473E-03     0.33802137937492E-03
   H      -0.52702751846068E-04     0.19886071082664E-02     0.30901821025957E-03
   H      -0.55323908254601E-04    -0.16454730620118E-03    -0.13269596534241E-02
   O      -0.38454169473306E-04    -0.21837761615098E-03    -0.54305183157689E-03
   H       0.23186644426016E-03     0.26573731048113E-02    -0.48883500397612E-04
   H       0.11183185496508E-02     0.13570202823401E-02     0.14858003778276E-03
 


   Partial temperatures (for each ionic specie) 
   Species  Temp (K)   Mean Square Displacement (a.u.)
        1   4.84E+02     1.5025E+01
        2   8.47E+02     2.2358E+01
 
  nfi     ekinc              temph  tempp     etot                 enthal               econs                econt              vnhh    xnhh0   vnhp    xnhp0
   6300    0.001803050447586    0.0  726.24    -137.002566613791    -137.002566613791    -136.919771342624    -136.917968292176   0.0000   0.0000   0.0000   0.0000
   6301    0.001843907278136    0.0  740.83    -137.004275318463    -137.004275318463    -136.919816285830    -136.917972378552   0.0000   0.0000   0.0000   0.0000
   6302    0.001884322487588    0.0  754.75    -137.005905703591    -137.005905703591    -136.919860655057    -136.917976332570   0.0000   0.0000   0.0000   0.0000
   6303    0.001919718953024    0.0  767.51    -137.007400167293    -137.007400167293    -136.919899854445    -136.917980135492   0.0000   0.0000   0.0000   0.0000
   6304    0.001949790809591    0.0  778.66    -137.008704740720    -137.008704740720    -136.919933389304    -136.917983598495   0.0000   0.0000   0.0000   0.0000
   6305    0.001977061617100    0.0  787.75    -137.009771463353    -137.009771463353    -136.919963451210    -136.917986389593   0.0000   0.0000   0.0000   0.0000
   6306    0.002001999408822    0.0  794.45    -137.010561512891    -137.010561512891    -136.919990508361    -136.917988508952   0.0000   0.0000   0.0000   0.0000
   6307    0.002021046155117    0.0  798.52    -137.011046819146    -137.011046819146    -136.920010854760    -136.917989808604   0.0000   0.0000   0.0000   0.0000
   6308    0.002030932025867    0.0  799.89    -137.011212527819    -137.011212527819    -136.920021059542    -136.917990127517   0.0000   0.0000   0.0000   0.0000
   6309    0.002033010293642    0.0  798.53    -137.011059115262    -137.011059115262    -136.920022354632    -136.917989344339   0.0000   0.0000   0.0000   0.0000
   6310    0.002031098593595    0.0  794.57    -137.010603507017    -137.010603507017    -136.920018531861    -136.917987433267   0.0000   0.0000   0.0000   0.0000
   6311    0.002026189931748    0.0  788.29    -137.009879291619    -137.009879291619    -136.920010650139    -136.917984460207   0.0000   0.0000   0.0000   0.0000
   6312    0.002015999454625    0.0  780.14    -137.008936052061    -137.008936052061    -136.919996574382    -136.917980574928   0.0000   0.0000   0.0000   0.0000
   6313    0.001999914245316    0.0  770.68    -137.007837404619    -137.007837404619    -136.919975859886    -136.917975945641   0.0000   0.0000   0.0000   0.0000
   6314    0.001981801304977    0.0  760.54    -137.006657974092    -137.006657974092    -136.919952538626    -136.917970737321   0.0000   0.0000   0.0000   0.0000
   6315    0.001966136070244    0.0  750.39    -137.005479535636    -137.005479535636    -136.919931560445    -136.917965424375   0.0000   0.0000   0.0000   0.0000
   6316    0.001953305341574    0.0  740.94    -137.004385121100    -137.004385121100    -136.919913642755    -136.917960337413   0.0000   0.0000   0.0000   0.0000
   6317    0.001942034999029    0.0  732.91    -137.003453582098    -137.003453582098    -136.919897907689    -136.917955872690   0.0000   0.0000   0.0000   0.0000
   6318    0.001934913213035    0.0  726.86    -137.002753635437    -137.002753635437    -136.919887328951    -136.917952415738   0.0000   0.0000   0.0000   0.0000
   6319    0.001937726224922    0.0  723.22    -137.002338231502    -137.002338231502    -136.919887937024    -136.917950210800   0.0000   0.0000   0.0000   0.0000
   6320    0.001952720708567    0.0  722.23    -137.002240567457    -137.002240567457    -136.919902257262    -136.917949536554   0.0000   0.0000   0.0000   0.0000
   6321    0.001975555604968    0.0  724.05    -137.002471108502    -137.002471108502    -136.919925941143    -136.917950385538   0.0000   0.0000   0.0000   0.0000
   6322    0.002001138302073    0.0  728.59    -137.003017185712    -137.003017185712    -136.919953849259    -136.917952710957   0.0000   0.0000   0.0000   0.0000
   6323    0.002029826218551    0.0  735.56    -137.003844047693    -137.003844047693    -136.919986045810    -136.917956219591   0.0000   0.0000   0.0000   0.0000
   6324    0.002065039526157    0.0  744.46    -137.004898444203    -137.004898444203    -136.920025612778    -136.917960573252   0.0000   0.0000   0.0000   0.0000
   6325    0.002105963018312    0.0  754.72    -137.006113533392    -137.006113533392    -136.920071353196    -136.917965390178   0.0000   0.0000   0.0000   0.0000
   6326    0.002146348910140    0.0  765.74    -137.007414635256    -137.007414635256    -136.920116552916    -136.917970204006   0.0000   0.0000   0.0000   0.0000
   6327    0.002181000611656    0.0  776.89    -137.008725752957    -137.008725752957    -136.920155710548    -136.917974709937   0.0000   0.0000   0.0000   0.0000
   6328    0.002209901226947    0.0  787.57    -137.009975352214    -137.009975352214    -136.920188461431    -136.917978560204   0.0000   0.0000   0.0000   0.0000
   6329    0.002234817375687    0.0  797.21    -137.011101989634    -137.011101989634    -136.920216273023    -136.917981455647   0.0000   0.0000   0.0000   0.0000
   6330    0.002254675177335    0.0  805.41    -137.012058671211    -137.012058671211    -136.920237833758    -136.917983158581   0.0000   0.0000   0.0000   0.0000
   6331    0.002266682942857    0.0  811.94    -137.012815442023    -137.012815442023    -136.920250278460    -136.917983595517   0.0000   0.0000   0.0000   0.0000
   6332    0.002270366513173    0.0  816.69    -137.013360249677    -137.013360249677    -136.920253151712    -136.917982785199   0.0000   0.0000   0.0000   0.0000
   6333    0.002267468705492    0.0  819.70    -137.013698803515    -137.013698803515    -136.920248457990    -136.917980989284   0.0000   0.0000   0.0000   0.0000
   6334    0.002258169398765    0.0  821.15    -137.013852331417    -137.013852331417    -136.920236649219    -136.917978479820   0.0000   0.0000   0.0000   0.0000
   6335    0.002241043089692    0.0  821.35    -137.013854185661    -137.013854185661    -136.920216393393    -136.917975350304   0.0000   0.0000   0.0000   0.0000
   6336    0.002217608794973    0.0  820.64    -137.013746612812    -137.013746612812    -136.920189509886    -136.917971901091   0.0000   0.0000   0.0000   0.0000
   6337    0.002193259724728    0.0  819.39    -137.013576250818    -137.013576250818    -136.920161738159    -136.917968478434   0.0000   0.0000   0.0000   0.0000
   6338    0.002172095759009    0.0  817.96    -137.013389666088    -137.013389666088    -136.920137452888    -136.917965357129   0.0000   0.0000   0.0000   0.0000
   6339    0.002153052085067    0.0  816.75    -137.013229502697    -137.013229502697    -136.920115854935    -136.917962802850   0.0000   0.0000   0.0000   0.0000
   6340    0.002133050224423    0.0  816.07    -137.013130726064    -137.013130726064    -136.920093998403    -136.917960948179   0.0000   0.0000   0.0000   0.0000
   6341    0.002112708735777    0.0  816.15    -137.013118095265    -137.013118095265    -136.920072596468    -136.917959887732   0.0000   0.0000   0.0000   0.0000
   6342    0.002096255555026    0.0  817.06    -137.013204841666    -137.013204841666    -136.920055920063    -136.917959664508   0.0000   0.0000   0.0000   0.0000
   6343    0.002086133321876    0.0  818.79    -137.013392271381    -137.013392271381    -136.920046394768    -136.917960261447   0.0000   0.0000   0.0000   0.0000
   6344    0.002080492383663    0.0  821.26    -137.013669934450    -137.013669934450    -136.920041989970    -136.917961497586   0.0000   0.0000   0.0000   0.0000
   6345    0.002076711287040    0.0  824.32    -137.014017112188    -137.014017112188    -136.920039909936    -136.917963198649   0.0000   0.0000   0.0000   0.0000
   6346    0.002074454967195    0.0  827.73    -137.014405021267    -137.014405021267    -136.920039822962    -136.917965367995   0.0000   0.0000   0.0000   0.0000
   6347    0.002073826379345    0.0  831.17    -137.014798796314    -137.014798796314    -136.920041614696    -136.917967788317   0.0000   0.0000   0.0000   0.0000
   6348    0.002073265562988    0.0  834.32    -137.015160717401    -137.015160717401    -136.920043516427    -136.917970250864   0.0000   0.0000   0.0000   0.0000
   6349    0.002071083289304    0.0  836.88    -137.015452893566    -137.015452893566    -136.920043642671    -136.917972559382   0.0000   0.0000   0.0000   0.0000
   6350    0.002067713957416    0.0  838.53    -137.015639522572    -137.015639522572    -136.920042224073    -136.917974510116   0.0000   0.0000   0.0000   0.0000
   6351    0.002064212092369    0.0  838.99    -137.015689368737    -137.015689368737    -136.920040261981    -136.917976049888   0.0000   0.0000   0.0000   0.0000
   6352    0.002058805471718    0.0  838.04    -137.015577423545    -137.015577423545    -136.920035940901    -136.917977135429   0.0000   0.0000   0.0000   0.0000
   6353    0.002047771462039    0.0  835.58    -137.015286067084    -137.015286067084    -136.920025460398    -136.917977688936   0.0000   0.0000   0.0000   0.0000
   6354    0.002030311635602    0.0  831.52    -137.014805943625    -137.014805943625    -136.920008010090    -136.917977698454   0.0000   0.0000   0.0000   0.0000
   6355    0.002009904646840    0.0  825.83    -137.014136202097    -137.014136202097    -136.919987093146    -136.917977188499   0.0000   0.0000   0.0000   0.0000
   6356    0.001989529854896    0.0  818.55    -137.013284372452    -137.013284372452    -136.919965676596    -136.917976146742   0.0000   0.0000   0.0000   0.0000
   6357    0.001967469206158    0.0  809.82    -137.012266071124    -137.012266071124    -136.919942110266    -136.917974641059   0.0000   0.0000   0.0000   0.0000
   6358    0.001939845270070    0.0  799.89    -137.011103987053    -137.011103987053    -136.919912542043    -136.917972696773   0.0000   0.0000   0.0000   0.0000
   6359    0.001906622894665    0.0  789.00    -137.009827152542    -137.009827152542    -136.919877042442    -136.917970419548   0.0000   0.0000   0.0000   0.0000
   6360    0.001872417859751    0.0  777.42    -137.008469848377    -137.008469848377    -136.919840418553    -136.917968000693   0.0000   0.0000   0.0000   0.0000
   6361    0.001841113481226    0.0  765.43    -137.007069852654    -137.007069852654    -136.919806539462    -136.917965425981   0.0000   0.0000   0.0000   0.0000
   6362    0.001812216369643    0.0  753.41    -137.005667537051    -137.005667537051    -136.919774967030    -136.917962750661   0.0000   0.0000   0.0000   0.0000
   6363    0.001783108675429    0.0  741.73    -137.004304436527    -137.004304436527    -136.919743236389    -136.917960127714   0.0000   0.0000   0.0000   0.0000
   6364    0.001753466101944    0.0  730.76    -137.003021485164    -137.003021485164    -136.919711033289    -136.917957567187   0.0000   0.0000   0.0000   0.0000
   6365    0.001726129583638    0.0  720.82    -137.001858189300    -137.001858189300    -136.919681389573    -136.917955259990   0.0000   0.0000   0.0000   0.0000
   6366    0.001703565299204    0.0  712.19    -137.000850674022    -137.000850674022    -136.919656886968    -136.917953321669   0.0000   0.0000   0.0000   0.0000
   6367    0.001685596679803    0.0  705.17    -137.000030116482    -137.000030116482    -136.919637334117    -136.917951737437   0.0000   0.0000   0.0000   0.0000
   6368    0.001671263246151    0.0  699.97    -136.999422109210    -136.999422109210    -136.919621891257    -136.917950628011   0.0000   0.0000   0.0000   0.0000
   6369    0.001661197502347    0.0  696.76    -136.999045342477    -136.999045342477    -136.919611204281    -136.917950006779   0.0000   0.0000   0.0000   0.0000
   6370    0.001657368993653    0.0  695.61    -136.998910743387    -136.998910743387    -136.919607262663    -136.917949893669   0.0000   0.0000   0.0000   0.0000
   6371    0.001660858634466    0.0  696.54    -136.999020803524    -136.999020803524    -136.919611226981    -136.917950368346   0.0000   0.0000   0.0000   0.0000
   6372    0.001670748515713    0.0  699.50    -136.999369051530    -136.999369051530    -136.919622267982    -136.917951519467   0.0000   0.0000   0.0000   0.0000
   6373    0.001685662251545    0.0  704.36    -136.999939944904    -136.999939944904    -136.919638954981    -136.917953292730   0.0000   0.0000   0.0000   0.0000
   6374    0.001705601452558    0.0  710.92    -137.000709366244    -137.000709366244    -136.919661232220    -136.917955630767   0.0000   0.0000   0.0000   0.0000
   6375    0.001731240421687    0.0  718.87    -137.001644858067    -137.001644858067    -136.919689591345    -136.917958350924   0.0000   0.0000   0.0000   0.0000
   6376    0.001761920238787    0.0  727.89    -137.002706885314    -137.002706885314    -136.919723307060    -136.917961386821   0.0000   0.0000   0.0000   0.0000
   6377    0.001795056865094    0.0  737.60    -137.003850202301    -137.003850202301    -136.919759886246    -136.917964829380   0.0000   0.0000   0.0000   0.0000
   6378    0.001828196947908    0.0  747.58    -137.005024885349    -137.005024885349    -136.919796625283    -136.917968428335   0.0000   0.0000   0.0000   0.0000
   6379    0.001861476720025    0.0  757.38    -137.006179021381    -137.006179021381    -136.919833523654    -136.917972046934   0.0000   0.0000   0.0000   0.0000
   6380    0.001896212161381    0.0  766.53    -137.007260488860    -137.007260488860    -136.919871752837    -136.917975540676   0.0000   0.0000   0.0000   0.0000
   6381    0.001931486095861    0.0  774.60    -137.008219017804    -137.008219017804    -136.919910235514    -136.917978749418   0.0000   0.0000   0.0000   0.0000
   6382    0.001963889111961    0.0  781.22    -137.009008905493    -137.009008905493    -136.919945505384    -136.917981616272   0.0000   0.0000   0.0000   0.0000
   6383    0.001990895087086    0.0  786.07    -137.009591102032    -137.009591102032    -136.919974818555    -136.917983923468   0.0000   0.0000   0.0000   0.0000
   6384    0.002013287892936    0.0  788.88    -137.009935557318    -137.009935557318    -136.919998716547    -136.917985428654   0.0000   0.0000   0.0000   0.0000
   6385    0.002032919749198    0.0  789.48    -137.010023477367    -137.010023477367    -136.920018938351    -136.917986018602   0.0000   0.0000   0.0000   0.0000
   6386    0.002048910806718    0.0  787.81    -137.009848940988    -137.009848940988    -136.920034684217    -136.917985773411   0.0000   0.0000   0.0000   0.0000
   6387    0.002058369339723    0.0  783.97    -137.009419463685    -137.009419463685    -136.920043000674    -136.917984631335   0.0000   0.0000   0.0000   0.0000
   6388    0.002061074457780    0.0  778.15    -137.008756650216    -137.008756650216    -136.920043689230    -136.917982614772   0.0000   0.0000   0.0000   0.0000
   6389    0.002060598623155    0.0  770.62    -137.007895383478    -137.007895383478    -136.920040375467    -136.917979776844   0.0000   0.0000   0.0000   0.0000
   6390    0.002059970304641    0.0  761.77    -137.006882162838    -137.006882162838    -136.920036182739    -136.917976212434   0.0000   0.0000   0.0000   0.0000
   6391    0.002058480353108    0.0  752.09    -137.005772951329    -137.005772951329    -136.920030738526    -136.917972258172   0.0000   0.0000   0.0000   0.0000
   6392    0.002054296242377    0.0  742.13    -137.004629368839    -137.004629368839    -136.920022500893    -136.917968204651   0.0000   0.0000   0.0000   0.0000
   6393    0.002048883415561    0.0  732.43    -137.003514552600    -137.003514552600    -136.920013283697    -136.917964400281   0.0000   0.0000   0.0000   0.0000
   6394    0.002046194456857    0.0  723.48    -137.002488326664    -137.002488326664    -136.920007316934    -136.917961122477   0.0000   0.0000   0.0000   0.0000
   6395    0.002048190337456    0.0  715.72    -137.001602620054    -137.001602620054    -136.920006794718    -136.917958604381   0.0000   0.0000   0.0000   0.0000
   6396    0.002053991810940    0.0  709.50    -137.000897331838    -137.000897331838    -136.920011045341    -136.917957053530   0.0000   0.0000   0.0000   0.0000
   6397    0.002063627129475    0.0  705.03    -137.000396914155    -137.000396914155    -136.920020218701    -136.917956591572   0.0000   0.0000   0.0000   0.0000
   6398    0.002079438066516    0.0  702.35    -137.000108423638    -137.000108423638    -136.920036785383    -136.917957347316   0.0000   0.0000   0.0000   0.0000
   6399    0.002101935186811    0.0  701.37    -137.000020769664    -137.000020769664    -136.920061202685    -136.917959267499   0.0000   0.0000   0.0000   0.0000

 * Physical Quantities at step:  6400

   from rhoofr: total integrated electronic density
   in g-space =     64.000000   in r-space =    64.000000


                total energy =     -137.00010587285 Hartree a.u.
              kinetic energy =       98.08531 Hartree a.u.
        electrostatic energy =     -185.48127 Hartree a.u.
                         esr =        0.01637 Hartree a.u.
                       eself =      242.55691 Hartree a.u.
      pseudopotential energy =       -9.51262 Hartree a.u.
  n-l pseudopotential energy =       -6.30762 Hartree a.u.
 exchange-correlation energy =      -33.78391 Hartree a.u.
           average potential =        0.00000 Hartree a.u.



   Eigenvalues (eV), kp =   1 , spin =  1

  -23.48  -23.37  -23.26  -23.17  -23.07  -22.90  -22.68  -22.41  -11.30  -11.07
  -10.76  -10.64  -10.36  -10.27  -10.19  -10.03   -8.23   -8.07   -7.40   -7.17
   -7.01   -6.92   -6.71   -6.30   -5.52   -5.17   -5.13   -4.95   -4.84   -4.74
   -4.66   -4.47
 
 
   CELL_PARAMETERS
   13.00000000    0.00000000    0.00000000
    0.00000000   13.00000000    0.00000000
    0.00000000    0.00000000   13.00000000

   System Density [g/cm^3] :              0.7351364820


   System Volume [A.U.^3] :           2197.0000000000


   Center of mass square displacement (a.u.):   0.000000

   ATOMIC_POSITIONS
   O       0.89262980140876E+01     0.28683365113714E+01     0.89500873280475E+00
   H       0.76994972689073E+01     0.32653777655393E+01    -0.42382914048767E+00
   H       0.84624614805774E+01     0.11710587944400E+01     0.12119773053114E+01
   O       0.49111698636424E+01    -0.73014597211535E+01     0.39139197031231E+01
   H       0.59393177588678E+01    -0.69903125275755E+01     0.53739958895491E+01
   H       0.35471818238084E+01    -0.62984010494721E+01     0.40984064780215E+01
   O      -0.36651247918589E+01    -0.17744040629586E+01     0.35376363587757E+01
   H      -0.28437328391129E+01    -0.33991942694116E+01     0.28817591600303E+01
   H      -0.23675472595121E+01    -0.75141208908571E+00     0.44519233553751E+01
   O      -0.36785917555094E+00     0.68751995017395E+01     0.17097955247412E+01
   H      -0.14230555080511E+01     0.53896073790285E+01     0.15314394236079E+01
   H       0.47211535739303E-01     0.76717851102431E+01     0.10460915497403E+00
   O      -0.15543699484558E+00    -0.21907582083608E+01    -0.18057455424287E+01
   H      -0.49409849885319E+00    -0.63552604873535E+00    -0.69599958847569E+00
   H       0.14140245046458E+01    -0.14338136993985E+01    -0.26513134241443E+01
   O      -0.59119665450832E+01    -0.38334331962795E+01    -0.32222225271116E+01
   H      -0.43305703996019E+01    -0.37524861240210E+01    -0.27248035330453E+01
   H      -0.66603744139729E+01    -0.46247988804681E+01    -0.17564066126714E+01
   O      -0.84079003739743E+01     0.43274402416266E+01    -0.14115431893414E+01
   H      -0.99250908252338E+01     0.52093831911265E+01    -0.91866883750142E+00
   H      -0.91583316852619E+01     0.35077103968488E+01    -0.30116619045613E+01
   O       0.45933465553715E+01     0.98495276267636E+00    -0.60563566199908E+01
   H       0.60366476801161E+01     0.94277149345831E-01    -0.58578238739983E+01
   H       0.52863186600313E+01     0.22772298122147E+01    -0.72207239732601E+01
 
   ATOMIC_VELOCITIES
   O      -0.40606881882184E-03     0.26178891831005E-03    -0.24961106848172E-03
   H       0.23763203423364E-02    -0.18264208381881E-02    -0.79840806884510E-03
   H      -0.28340196757012E-03     0.41846680848213E-03     0.10362784764264E-02
   O       0.39278982293720E-03    -0.20918976819074E-03     0.24738098389687E-03
   H      -0.21088020751497E-02     0.59557022951163E-03    -0.11108486386625E-02
   H      -0.13341657680902E-02     0.29132941804783E-04     0.14391432800212E-02
   O       0.39064085157887E-03     0.18532932512907E-03     0.31293352728580E-03
   H       0.43352223657952E-03     0.17895661548038E-03    -0.11127440743196E-02
   H       0.17143113379285E-02     0.34761212772747E-03     0.17152402763544E-03
   O       0.80379231567686E-04    -0.22629442662132E-03    -0.35639155100054E-03
   H      -0.11722121592314E-02     0.14182646290410E-02     0.16888115273028E-02
   H       0.10376761887454E-03    -0.90376274474258E-03     0.16670544856032E-02
   O      -0.19192272727706E-03     0.27845463356515E-03     0.18453131832380E-03
   H      -0.53131912431346E-03     0.12293621884038E-02    -0.63211727969684E-03
   H       0.80512056142404E-03    -0.66405961687422E-03    -0.63489448402714E-03
   O      -0.12346585625715E-03     0.82437346080377E-04    -0.21688158599674E-03
   H       0.11164261678165E-03    -0.43282994536376E-03     0.18628165989019E-02
   H      -0.13128247278891E-02    -0.47786211903596E-03     0.14539689683025E-02
   O      -0.68670056647013E-05    -0.33301573527798E-03     0.35252983192194E-03
   H       0.10072030829976E-02    -0.98221039229984E-04    -0.64289171535638E-03
   H      -0.89414185231413E-03    -0.78582123495253E-03    -0.10988372820401E-02
   O       0.77691765437593E-05     0.35366586843534E-04    -0.61159217737072E-03
   H       0.28308959824964E-03     0.77546103124203E-03     0.31681143633632E-03
   H      -0.14722190506058E-02    -0.99248885611244E-03     0.17456687308460E-02
 


   Partial temperatures (for each ionic specie) 
   Species  Temp (K)   Mean Square Displacement (a.u.)
        1   7.11E+02     1.5424E+01
        2   6.97E+02     2.3365E+01
 
  nfi     ekinc              temph  tempp     etot                 enthal               econs                econt              vnhh    xnhh0   vnhp    xnhp0
   6400    0.002126984030705    0.0  701.87    -137.000105872852    -137.000105872852    -136.920089162078    -136.917962178047   0.0000   0.0000   0.0000   0.0000
   6401    0.002150097391540    0.0  703.52    -137.000321218069    -137.000321218069    -136.920115774225    -136.917965676834   0.0000   0.0000   0.0000   0.0000
   6402    0.002172230589937    0.0  705.87    -137.000614366550    -137.000614366550    -136.920141659249    -136.917969428659   0.0000   0.0000   0.0000   0.0000
   6403    0.002197246693266    0.0  708.37    -137.000927888346    -137.000927888346    -136.920170444250    -136.917973197557   0.0000   0.0000   0.0000   0.0000
   6404    0.002223688597671    0.0  710.53    -137.001204346842    -137.001204346842    -136.920200232555    -136.917976543957   0.0000   0.0000   0.0000   0.0000
   6405    0.002243228147443    0.0  711.98    -137.001392166174    -137.001392166174    -136.920222444069    -136.917979215922   0.0000   0.0000   0.0000   0.0000
   6406    0.002248753591652    0.0  712.42    -137.001449779141    -137.001449779141    -136.920229683741    -136.917980930149   0.0000   0.0000   0.0000   0.0000
   6407    0.002241779790555    0.0  711.60    -137.001349243030    -137.001349243030    -136.920223307774    -136.917981527983   0.0000   0.0000   0.0000   0.0000
   6408    0.002229415095371    0.0  709.34    -137.001078757337    -137.001078757337    -136.920210401006    -136.917980985911   0.0000   0.0000   0.0000   0.0000
   6409    0.002215407596083    0.0  705.66    -137.000643461619    -137.000643461619    -136.920194797067    -136.917979389471   0.0000   0.0000   0.0000   0.0000
   6410    0.002197282548579    0.0  700.76    -137.000064333901    -137.000064333901    -136.920174110153    -136.917976827604   0.0000   0.0000   0.0000   0.0000
   6411    0.002171991365626    0.0  694.97    -136.999376172480    -136.999376172480    -136.920145461953    -136.917973470588   0.0000   0.0000   0.0000   0.0000
   6412    0.002140619231700    0.0  688.69    -136.998624625831    -136.998624625831    -136.920110402181    -136.917969782949   0.0000   0.0000   0.0000   0.0000
   6413    0.002106472102766    0.0  682.33    -136.997861441055    -136.997861441055    -136.920072398541    -136.917965926438   0.0000   0.0000   0.0000   0.0000
   6414    0.002072006170330    0.0  676.34    -136.997140889394    -136.997140889394    -136.920034220541    -136.917962214371   0.0000   0.0000   0.0000   0.0000
   6415    0.002038814398803    0.0  671.17    -136.996514985033    -136.996514985033    -136.919997772863    -136.917958958464   0.0000   0.0000   0.0000   0.0000
   6416    0.002008818253119    0.0  667.20    -136.996028895497    -136.996028895497    -136.919965150231    -136.917956331978   0.0000   0.0000   0.0000   0.0000
   6417    0.001983402725166    0.0  664.71    -136.995717962108    -136.995717962108    -136.919938004821    -136.917954602095   0.0000   0.0000   0.0000   0.0000
   6418    0.001961760203767    0.0  663.91    -136.995604854941    -136.995604854941    -136.919915595581    -136.917953835377   0.0000   0.0000   0.0000   0.0000
   6419    0.001942620654504    0.0  664.89    -136.995698100760    -136.995698100760    -136.919896652576    -136.917954031922   0.0000   0.0000   0.0000   0.0000
[...]
  16070    0.001822925550946    0.0  739.37    -137.004078161521    -137.004078161521    -136.919785980221    -136.917963054670   0.0000   0.0000   0.0000   0.0000
  16071    0.001794575775195    0.0  723.39    -137.002222927387    -137.002222927387    -136.919752249195    -136.917957673420   0.0000   0.0000   0.0000   0.0000
  16072    0.001769240774533    0.0  708.58    -137.000503573476    -137.000503573476    -136.919722070203    -136.917952829428   0.0000   0.0000   0.0000   0.0000
  16073    0.001748392668409    0.0  695.54    -136.998992104337    -136.998992104337    -136.919697262432    -136.917948869763   0.0000   0.0000   0.0000   0.0000
  16074    0.001733356061898    0.0  684.77    -136.997747218285    -136.997747218285    -136.919679405930    -136.917946049868   0.0000   0.0000   0.0000   0.0000
  16075    0.001725171350576    0.0  676.64    -136.996810654853    -136.996810654853    -136.919669648024    -136.917944476673   0.0000   0.0000   0.0000   0.0000
  16076    0.001724595583323    0.0  671.34    -136.996205238243    -136.996205238243    -136.919668822513    -136.917944226929   0.0000   0.0000   0.0000   0.0000
  16077    0.001731832308503    0.0  668.89    -136.995934068806    -136.995934068806    -136.919677041777    -136.917945209468   0.0000   0.0000   0.0000   0.0000
  16078    0.001746266084859    0.0  669.16    -136.995981635649    -136.995981635649    -136.919693514235    -136.917947248150   0.0000   0.0000   0.0000   0.0000
  16079    0.001766469936873    0.0  671.90    -136.996316297692    -136.996316297692    -136.919716591431    -136.917950121494   0.0000   0.0000   0.0000   0.0000
  16080    0.001790751218673    0.0  676.72    -136.996893698737    -136.996893698737    -136.919744248720    -136.917953497501   0.0000   0.0000   0.0000   0.0000
  16081    0.001817914707155    0.0  683.18    -136.997661228079    -136.997661228079    -136.919775020958    -136.917957106251   0.0000   0.0000   0.0000   0.0000
  16082    0.001847092421285    0.0  690.80    -136.998562318156    -136.998562318156    -136.919807769843    -136.917960677422   0.0000   0.0000   0.0000   0.0000
  16083    0.001876965827408    0.0  699.09    -136.999540627197    -136.999540627197    -136.919840923094    -136.917963957267   0.0000   0.0000   0.0000   0.0000
  16084    0.001905620830111    0.0  707.61    -137.000543732572    -137.000543732572    -136.919872419120    -136.917966798290   0.0000   0.0000   0.0000   0.0000
  16085    0.001931310683150    0.0  715.98    -137.001525536408    -137.001525536408    -136.919900403301    -136.917969092618   0.0000   0.0000   0.0000   0.0000
  16086    0.001953381836455    0.0  723.86    -137.002447809135    -137.002447809135    -136.919924187682    -136.917970805845   0.0000   0.0000   0.0000   0.0000
  16087    0.001972183982263    0.0  730.99    -137.003280830688    -137.003280830688    -136.919944162206    -136.917971978223   0.0000   0.0000   0.0000   0.0000
  16088    0.001988160836498    0.0  737.18    -137.004003187238    -137.004003187238    -136.919960810454    -136.917972649618   0.0000   0.0000   0.0000   0.0000
  16089    0.002001346647990    0.0  742.31    -137.004601142220    -137.004601142220    -136.919974268907    -136.917972922259   0.0000   0.0000   0.0000   0.0000
  16090    0.002011528466733    0.0  746.31    -137.005067300434    -137.005067300434    -136.919984429426    -136.917972900959   0.0000   0.0000   0.0000   0.0000
  16091    0.002018600074912    0.0  749.16    -137.005399058145    -137.005399058145    -136.919991287615    -136.917972687540   0.0000   0.0000   0.0000   0.0000
  16092    0.002022749191311    0.0  750.86    -137.005597135181    -137.005597135181    -136.919995099506    -136.917972350315   0.0000   0.0000   0.0000   0.0000
  16093    0.002024510024773    0.0  751.44    -137.005664400872    -137.005664400872    -136.919996497321    -136.917971987296   0.0000   0.0000   0.0000   0.0000
  16094    0.002024583432675    0.0  750.92    -137.005604637182    -137.005604637182    -136.919996278924    -136.917971695491   0.0000   0.0000   0.0000   0.0000
  16095    0.002023450426049    0.0  749.32    -137.005421470893    -137.005421470893    -136.919994921956    -136.917971471530   0.0000   0.0000   0.0000   0.0000
  16096    0.002021138061301    0.0  746.68    -137.005118087119    -137.005118087119    -136.919992445161    -136.917971307100   0.0000   0.0000   0.0000   0.0000
  16097    0.002017268471386    0.0  743.02    -137.004697131387    -137.004697131387    -136.919988478025    -136.917971209554   0.0000   0.0000   0.0000   0.0000
  16098    0.002011413831509    0.0  738.37    -137.004160621903    -137.004160621903    -136.919982612606    -136.917971198774   0.0000   0.0000   0.0000   0.0000
  16099    0.002003504361077    0.0  732.73    -137.003510048173    -137.003510048173    -136.919974716349    -136.917971211988   0.0000   0.0000   0.0000   0.0000

 * Physical Quantities at step: 16100

   from rhoofr: total integrated electronic density
   in g-space =     64.000000   in r-space =    64.000000


                total energy =     -137.00274707995 Hartree a.u.
              kinetic energy =       96.92347 Hartree a.u.
        electrostatic energy =     -185.11172 Hartree a.u.
                         esr =        0.00794 Hartree a.u.
                       eself =      242.55691 Hartree a.u.
      pseudopotential energy =       -9.29232 Hartree a.u.
  n-l pseudopotential energy =       -6.01149 Hartree a.u.
 exchange-correlation energy =      -33.51070 Hartree a.u.
           average potential =        0.00000 Hartree a.u.



   Eigenvalues (eV), kp =   1 , spin =  1

  -23.25  -23.01  -22.86  -22.71  -22.64  -22.43  -22.38  -22.24  -10.64  -10.62
  -10.31  -10.16  -10.09  -10.03   -9.95   -9.70   -8.33   -8.00   -7.60   -7.39
   -7.13   -6.96   -6.50   -6.35   -5.29   -5.14   -5.10   -5.02   -4.87   -4.76
   -4.63   -4.33
 
 
   CELL_PARAMETERS
   13.00000000    0.00000000    0.00000000
    0.00000000   13.00000000    0.00000000
    0.00000000    0.00000000   13.00000000

   System Density [g/cm^3] :              0.7351364820


   System Volume [A.U.^3] :           2197.0000000000


   Center of mass square displacement (a.u.):   0.000000

   ATOMIC_POSITIONS
   O       0.14770432765969E+02     0.25164513563982E+00     0.22884050997296E+01
   H       0.15663034989033E+02    -0.34209168523314E+00     0.38560514160753E+01
   H       0.14329747741245E+02    -0.14473582051135E+01     0.15151062493817E+01
   O       0.43206264021474E+01    -0.85411091031910E+01     0.63619665772872E+01
   H       0.27897757639633E+01    -0.75518351128996E+01     0.56779625203314E+01
   H       0.44245323887119E+01    -0.10146509629937E+02     0.51511527560542E+01
   O      -0.30110789629132E+01    -0.28768399752993E+01     0.69919964791284E+00
   H      -0.42179961180636E+01    -0.43412414241591E+01     0.42104217799944E+00
   H      -0.28652343193576E+01    -0.30533872561937E+01     0.26405641456274E+01
   O      -0.19824335656082E+01     0.67868993999732E+01    -0.39397930048588E+01
   H      -0.20589375092707E+00     0.70261352647984E+01    -0.32628866838016E+01
   H      -0.18803492635613E+01     0.59141794506835E+01    -0.55240992205945E+01
   O      -0.53192274525913E+01    -0.17074732931668E+01    -0.52421666276294E+01
   H      -0.40263676675642E+01    -0.29861362686146E+01    -0.45374562765093E+01
   H      -0.51369031529949E+01    -0.54325231546672E+00    -0.38751691920589E+01
   O      -0.10310230326657E+02    -0.24075419679078E+01    -0.63419408956312E+01
   H      -0.84302530689142E+01    -0.28024772459712E+01    -0.57882379243623E+01
   H      -0.10919136134487E+02    -0.19806465960728E+01    -0.46980678637530E+01
   O      -0.18192089485961E+01     0.40963148446745E+01     0.45724973698228E+01
   H      -0.10709670200760E+01     0.26479805513161E+01     0.36031430771253E+01
   H      -0.34395839083339E+01     0.41767597011643E+01     0.34898996415906E+01
   O       0.32687655135644E+01     0.48775871158342E+01    -0.90824143302946E+00
   H       0.29528937135876E+01     0.31619610019235E+01    -0.35935685311405E+00
   H       0.33400449759106E+01     0.46563367705555E+01    -0.27965663733387E+01
 
   ATOMIC_VELOCITIES
   O      -0.39343887596965E-05     0.77156920612085E-04    -0.60573836281646E-03
   H       0.12888323929764E-02     0.14324043780272E-03    -0.66231744795754E-03
   H      -0.13425410730827E-02    -0.72274801576871E-03    -0.73453028325348E-03
   O      -0.96475607735047E-04    -0.29518788394078E-04     0.16926333494037E-03
   H       0.65533257539401E-03     0.51172308426793E-03    -0.84229666185476E-03
   H       0.72829775018163E-03    -0.41737588594417E-02     0.76889448329763E-03
   O      -0.15508852606443E-03     0.31132864435205E-03     0.52889018720258E-04
   H      -0.32817475932805E-03    -0.10093537960698E-02     0.20172842178384E-02
   H      -0.11086716282085E-02    -0.84961140729433E-03    -0.16926133196386E-02
   O       0.24860274838248E-03    -0.16152776789228E-03    -0.22519350923867E-03
   H      -0.15399588028213E-02    -0.12161017611267E-02    -0.23136196178593E-03
   H       0.84097288722401E-04     0.87434964033230E-03     0.27607148343223E-02
   O      -0.30949543918938E-03     0.10173045192831E-03    -0.17102297815080E-04
   H       0.14089613952284E-03    -0.41846336426322E-03    -0.15787883264210E-03
   H       0.12054054971184E-02     0.14972842572821E-02     0.70236439758633E-03
   O       0.43777754485975E-03    -0.74146425118263E-04     0.34251275777926E-03
   H      -0.16056140787527E-02    -0.10477920943096E-03     0.32867059645993E-03
   H       0.11051588618044E-02    -0.49786887502864E-03     0.78557715683865E-03
   O      -0.26364402788000E-03    -0.44727129443439E-04    -0.19749510449240E-03
   H      -0.12987454531033E-02    -0.10866707978398E-02    -0.11392381377425E-02
   H       0.19963261434318E-03     0.89080529262284E-03     0.11203029967233E-02
   O       0.32609153264089E-03     0.74123598651565E-04     0.37710234656862E-03
   H      -0.85927545693246E-03     0.12044421346880E-02    -0.35437033548352E-03
   H      -0.24295878128844E-03     0.91870572767050E-03    -0.10220253343541E-02
 


   Partial temperatures (for each ionic specie) 
   Species  Temp (K)   Mean Square Displacement (a.u.)
        1   5.60E+02     5.3498E+01
        2   8.09E+02     6.3930E+01
 
  nfi     ekinc              temph  tempp     etot                 enthal               econs                econt              vnhh    xnhh0   vnhp    xnhp0
  16100    0.001993819936008    0.0  726.13    -137.002747079949    -137.002747079949    -136.919965006160    -136.917971186224   0.0000   0.0000   0.0000   0.0000

 * Physical Quantities at step: 16101


                total energy =     -137.00187434239 Hartree a.u.
              kinetic energy =       96.92924 Hartree a.u.
        electrostatic energy =     -185.11289 Hartree a.u.
                         esr =        0.00802 Hartree a.u.
                       eself =      242.55691 Hartree a.u.
      pseudopotential energy =       -9.29400 Hartree a.u.
  n-l pseudopotential energy =       -6.01229 Hartree a.u.
 exchange-correlation energy =      -33.51192 Hartree a.u.
           average potential =        0.00000 Hartree a.u.



   Eigenvalues (eV), kp =   1 , spin =  1

  -23.23  -22.99  -22.87  -22.72  -22.65  -22.47  -22.38  -22.23  -10.69  -10.62
  -10.30  -10.13  -10.08  -10.02   -9.94   -9.70   -8.33   -7.99   -7.60   -7.41
   -7.11   -6.97   -6.49   -6.37   -5.29   -5.13   -5.10   -5.01   -4.87   -4.76
   -4.64   -4.33
 
 
   CELL_PARAMETERS
   13.00000000    0.00000000    0.00000000
    0.00000000   13.00000000    0.00000000
    0.00000000    0.00000000   13.00000000

   System Density [g/cm^3] :              0.7351364820


   System Volume [A.U.^3] :           2197.0000000000


   Center of mass square displacement (a.u.):   0.000000

   ATOMIC_POSITIONS
   O       0.14770414658022E+02     0.25201669776043E+00     0.22853754075242E+01
   H       0.15669380644443E+02    -0.34136810499230E+00     0.38526795005310E+01
   H       0.14323058172817E+02    -0.14507518035504E+01     0.15115114784141E+01
   O       0.43201323051189E+01    -0.85412680035197E+01     0.63627933700459E+01
   H       0.27932927676121E+01    -0.75494421978643E+01     0.56738250964467E+01
   H       0.44281327262451E+01    -0.10167007464109E+02     0.51552664671168E+01
   O      -0.30118629687928E+01    -0.28752982788341E+01     0.69948435401464E+00
   H      -0.42194792659219E+01    -0.43461142546676E+01     0.43110102083873E+00
   H      -0.28707814229649E+01    -0.30575637329162E+01     0.26317975530098E+01
   O      -0.19811810291575E+01     0.67861018170881E+01    -0.39409063135180E+01
   H      -0.21383147115325E+00     0.70199915737010E+01    -0.32641391224961E+01
   H      -0.18798862640630E+01     0.59184736393699E+01    -0.55103900366798E+01
   O      -0.53207622399785E+01    -0.17069795718174E+01    -0.52422460049941E+01
   H      -0.40258108450196E+01    -0.29881784767659E+01    -0.45383954427058E+01
   H      -0.51309242884094E+01    -0.53562871918348E+00    -0.38716034659668E+01
   O      -0.10308019901017E+02    -0.24079205771018E+01    -0.63402252071660E+01
   H      -0.84385056435363E+01    -0.28029080994207E+01    -0.57867267292888E+01
   H      -0.10913712628851E+02    -0.19830851751944E+01    -0.46940780834128E+01
   O      -0.18205431064495E+01     0.40960818361082E+01     0.45714883573099E+01
   H      -0.10774103353456E+01     0.26426300713391E+01     0.35975623594843E+01
   H      -0.34383584855709E+01     0.41812609433941E+01     0.34957187485630E+01
   O       0.32703961702967E+01     0.48779574882608E+01    -0.90637027547094E+00
   H       0.29485744002090E+01     0.31679589922717E+01    -0.36107405588702E+00
   H       0.33388681418830E+01     0.46609534384948E+01    -0.28015118064779E+01
 
   ATOMIC_VELOCITIES
   O      -0.33130485961541E-05     0.71341092931215E-04    -0.60612155660660E-03
   H       0.12484543684723E-02     0.14631408850256E-03    -0.68779908412904E-03
   H      -0.13324375498588E-02    -0.63271114852529E-03    -0.70216411657150E-03
   O      -0.10109730731692E-03    -0.34257775942104E-04     0.16136540529988E-03
   H       0.75118613922578E-03     0.44474911968752E-03    -0.81301369142293E-03
   H       0.71095588742671E-03    -0.40210146647436E-02     0.87848559788620E-03
   O      -0.15863641361859E-03     0.30520900916979E-03     0.60818861315250E-04
   H      -0.26420331725508E-03    -0.93829857209978E-03     0.20050226699430E-02
   H      -0.11089776096403E-02    -0.82019057644256E-03    -0.18098466087702E-02
   O       0.25214838369537E-03    -0.15722118828315E-03    -0.21964193139622E-03
   H      -0.16311498419094E-02    -0.12405752962752E-02    -0.26787074663431E-03
   H       0.10142634334541E-03     0.83787584262696E-03     0.27130869830462E-02
   O      -0.30433318050119E-03     0.95954798801118E-04    -0.14361414585518E-04
   H       0.80951115311761E-04    -0.39736108483589E-03    -0.21792782099192E-03
   H       0.11857934636300E-02     0.15479977859726E-02     0.71944497197096E-03
   O       0.44621468399734E-03    -0.77259391740639E-04     0.34377231538162E-03
   H      -0.16923099096703E-02    -0.68364133527318E-04     0.27599689264309E-03
   H       0.10638651155168E-02    -0.47749539048405E-03     0.80994305732271E-03
   O      -0.26985306678870E-03    -0.48581974239659E-04    -0.20609754490754E-03
   H      -0.12792281256388E-02    -0.10518150952917E-02    -0.10918736432061E-02
   H       0.28853715024311E-03     0.90968109710637E-03     0.12059467500283E-02
   O       0.32620736866900E-03     0.74237639654784E-04     0.37111225652363E-03
   H      -0.86902010115380E-03     0.11912696520325E-02    -0.33157767121187E-03
   H      -0.22774799225352E-03     0.92795468186545E-03    -0.95308467036315E-03
 


   Partial temperatures (for each ionic specie) 
   Species  Temp (K)   Mean Square Displacement (a.u.)
        1   5.61E+02     5.3499E+01
        2   7.98E+02     6.3911E+01
  16101    0.001982470729293    0.0  718.57    -137.001874342386    -137.001874342386    -136.919953602530    -136.917971131801   0.0000   0.0000   0.0000   0.0000

   writing restart file (with schema): ./h2o_54.save/
     restart      :      0.20s CPU      0.52s WALL (      11 calls)


   Averaged Physical Quantities
                      accumulated      this run
   ekinc         :        0.00178       0.00181 (AU)
   ekin          :       97.84200      97.83900 (AU)
   epot          :     -228.56010    -228.55281 (AU)
   total energy  :     -136.99827    -136.99984 (AU)
   temperature   :      703.71875     702.28410 (K )
   enthalpy      :     -136.13932    -136.99984 (AU)
   econs         :     -136.91805    -136.91977 (AU)
   pressure      :        0.00000       0.00000 (Gpa)
   volume        :     2197.00000    2197.00000 (AU)



     Called by MAIN_LOOP:
     initialize   :      0.35s CPU      0.42s WALL (       1 calls)
     main_loop    :    343.63s CPU    368.72s WALL (   10000 calls)
     cpr_total    :    345.69s CPU    375.77s WALL (       1 calls)

     Called by INIT_RUN:
     init_readfil :      0.08s CPU      0.11s WALL (       1 calls)

     Called by CPR:
     cpr_md       :    345.67s CPU    375.74s WALL (   10000 calls)
     move_electro :    266.73s CPU    274.33s WALL (   10000 calls)

     Called by move_electrons:
     rhoofr       :     56.65s CPU     59.52s WALL (   10000 calls)
     vofrho       :    103.11s CPU    104.04s WALL (   10000 calls)
     dforce       :     84.00s CPU     87.44s WALL (  160000 calls)
     calphi       :      1.11s CPU      1.13s WALL (   10000 calls)
     nlfl         :      0.34s CPU      0.35s WALL (   10000 calls)

     Called by ortho:
     ortho_iter   :     28.09s CPU     28.17s WALL (   10000 calls)
     rsg          :     20.31s CPU     20.68s WALL (   10000 calls)
     rhoset       :      4.75s CPU      4.83s WALL (   10000 calls)
     sigset       :      2.64s CPU      2.66s WALL (   10000 calls)
     tauset       :      2.43s CPU      2.45s WALL (   10000 calls)
     ortho        :     58.48s CPU     59.00s WALL (   10000 calls)
     updatc       :      3.50s CPU      3.53s WALL (   10000 calls)

     Small boxes:

     Low-level routines:
     prefor       :      5.01s CPU      5.11s WALL (   20001 calls)
     nlfq         :     16.27s CPU     16.61s WALL (   10000 calls)
     nlsm1        :      5.60s CPU      5.66s WALL (   10001 calls)
     nlsm2        :     15.73s CPU     16.08s WALL (   10000 calls)
     fft          :     47.92s CPU     48.58s WALL (   80011 calls)
     ffts         :     11.39s CPU     11.69s WALL (   20000 calls)
     fftw         :    108.35s CPU    112.85s WALL (  480000 calls)
     fft_scatt_xy :     11.49s CPU     11.78s WALL (  580011 calls)
     fft_scatt_yz :     92.38s CPU     95.37s WALL (  580011 calls)
     fft_scatt_tg :      2.06s CPU      2.13s WALL (  480000 calls)
     betagx       :      0.09s CPU      0.09s WALL (       1 calls)
     qradx        :      0.00s CPU      0.00s WALL (       1 calls)
     nlinit       :      0.16s CPU      0.16s WALL (       1 calls)
     init_dim     :      0.01s CPU      0.01s WALL (       1 calls)
     newnlinit    :      0.02s CPU      0.02s WALL (       1 calls)
     from_restart :      0.04s CPU      0.04s WALL (       1 calls)
     strucf       :      2.05s CPU      2.73s WALL (   10001 calls)
     calbec       :      5.63s CPU      5.68s WALL (   10001 calls)
 
 
     CP           :   5m46.14s CPU   6m16.32s WALL

 
   This run was terminated on:  12: 8:11  26May2021            

=------------------------------------------------------------------------------=
   JOB DONE.
=------------------------------------------------------------------------------=
0
0
0
0
0
0
0
0
0
0
0
0
0
0
0
0
0
0
0
0
