
     Program CP v.6.7MaX starts on 26May2021 at 11:41:56 

     This program is part of the open-source Quantum ESPRESSO suite
     for quantum simulation of materials; please cite
         "P. Giannozzi et al., J. Phys.:Condens. Matter 21 395502 (2009);
         "P. Giannozzi et al., J. Phys.:Condens. Matter 29 465901 (2017);
          URL http://www.quantum-espresso.org", 
     in publications or presentations arising from this work. More details at
     http://www.quantum-espresso.org/quote

     Parallel version (MPI & OpenMP), running on      20 processor cores
     Number of MPI processes:                20
     Threads/MPI process:                     1

     MPI processes distributed on     1 nodes
     R & G space division:  proc/nbgrp/npool/nimage =      20
     Reading input from cp.water8.3-nose-hoover.in
Warning: card  &CELL ignored
Warning: card  / ignored

   Job Title: Water 8 molecules


   Atomic Pseudopotentials Parameters
   ----------------------------------

   Reading pseudopotential for specie #  1 from file :
   ../pseudo/O_ONCV_PBE-1.2.upf
     Message from routine read_pp_mesh:
     mesh size missing, using the one in header
   file type is xml

   Reading pseudopotential for specie #  2 from file :
   ../pseudo/H_ONCV_PBE-1.2.upf
     Message from routine read_pp_mesh:
     mesh size missing, using the one in header
   file type is xml


   Main Simulation Parameters (from input)
   ---------------------------------------
   Restart Mode       =       1   restart        
   Number of MD Steps =    5000
   Print out every           10 MD Steps
   Reads from unit    =      51
   Writes to unit     =      52
   MD Simulation time step            =       5.00
   Electronic fictitious mass (emass) =      50.00
   emass cut-off                      =       2.50

   Simulation Cell Parameters (from input)
   external pressure       =            0.00 [KBar]
   wmass (calculated)      =        19964.81 [AU]
   ibrav =    1
   alat  =    13.00000000
   a1    =    13.00000000    0.00000000    0.00000000
   a2    =     0.00000000   13.00000000    0.00000000
   a3    =     0.00000000    0.00000000   13.00000000
 
   b1    =     0.07692308    0.00000000    0.00000000
   b2    =     0.00000000    0.07692308    0.00000000
   b3    =     0.00000000    0.00000000    0.07692308
   omega =    2197.00000000

   Energy Cut-offs
   ---------------
   Ecutwfc =   50.0 Ry,      Ecutrho =  200.0 Ry,      Ecuts =  200.0 Ry
   Gcutwfc =   14.6     ,    Gcutrho =   29.3          Gcuts =   29.3
   NOTA BENE: refg, mmx =   0.050000  4800
   Eigenvalues calculated without the kinetic term contribution
   Orthog. with lagrange multipliers : eps =   0.10E-08,  max = 300
   Electron dynamics with newton equations
   Electron dynamics : the temperature is not controlled

   Electronic states
   -----------------
   Number of Electrons=    64, of States =    32
   Occupation numbers :
   2.00 2.00 2.00 2.00 2.00 2.00 2.00 2.00 2.00 2.00
   2.00 2.00 2.00 2.00 2.00 2.00 2.00 2.00 2.00 2.00
   2.00 2.00 2.00 2.00 2.00 2.00 2.00 2.00 2.00 2.00
   2.00 2.00


   Exchange and correlations functionals
   -------------------------------------
     Exchange-correlation= PBE
                           (   1   4   3   4   0   0   0)


   Ions Simulation Parameters
   --------------------------
   Ions are allowed to move
   Ions dynamics with newton equations
   the temperature is computed for    72 degrees of freedom
   ion dynamics with fricp =  0.0000 and greasp =  1.0000
   Ionic position (from input)
   sorted by specie, and converted to real a.u. coordinates
   Species   1 atoms =    8 mass =     29166.22 (a.u.),        16.00 (amu) rcmax =   0.50 (a.u.)
        4.842510     3.796199     3.732738
        3.735657    -4.474700     2.924274
       -4.546686    -3.542262     3.060744
       -3.436506     4.804268     3.377234
        3.614420    -4.282746    -3.989998
       -4.437095    -4.025366    -4.085110
       -3.558789     3.877301    -3.819233
        3.837783     3.820409    -4.507997
   Species   2 atoms =   16 mass =      1837.29 (a.u.),         1.01 (amu) rcmax =   0.50 (a.u.)
        4.004590     5.986780     3.533013
        4.365118     3.872322     5.879773
        6.059148    -3.795031     3.153403
        2.874962    -3.958672     4.675187
       -3.748838    -5.811626     3.320758
       -4.053948    -2.574364     4.768354
       -5.904151     4.217430     3.801415
       -2.303077     4.672005     5.082136
        3.119866    -4.561070    -2.002200
        5.914480    -3.952983    -3.866628
       -3.950822    -3.684809    -2.102720
       -3.940399    -6.190475    -4.165351
       -3.233219     3.435242    -1.818055
       -5.690475     3.479664    -3.789435
        2.013136     3.092241    -3.913112
        3.659354     6.200317    -4.387039
   Ionic position will be re-read from restart file

   All atoms are allowed to move
   Ionic temperature control via nose thermostat


   ion dynamics with nose` temperature control:
   temperature required      =  600.00000 (kelvin) 
   NH chain length           =   3
   active degrees of freedom =     72
   time steps per nose osc.  =    826


   nose` frequency(es)       =      10.000     -1.000     -1.000


   the requested type of NH chains is     0
   total number of thermostats used     1 0 0
   ionic degrees of freedom for each chain   72


   nose` mass(es) for chain    1 =  118452.990   1645.180   1645.180


   atom i (in sorted order) is assigned to this thermostat :
   1   1   1   1   1   1   1   1   1   1   1   1   1   1   1   1   1   1   1   1
   1   1   1   1


   Cell Dynamics Parameters (from STDIN)
   -------------------------------------
   Starting cell generated from CELLDM
   Cell parameters will be re-read from restart file
   Constant VOLUME Molecular dynamics
   cell parameters are not allowed to move

   Verbosity: iverbosity =  0



   Simulation dimensions initialization
   ------------------------------------

   unit vectors of full simulation cell
   in real space:                         in reciprocal space (units 2pi/alat):
   1    13.0000    0.0000    0.0000              1.0000    0.0000    0.0000
   2     0.0000   13.0000    0.0000              0.0000    1.0000    0.0000
   3     0.0000    0.0000   13.0000              0.0000    0.0000    1.0000
 
     Parallelization info
     --------------------
     sticks:   dense  smooth     PW     G-vecs:    dense   smooth      PW
     Min         133     133     32                 5246     5246     652
     Max         136     136     34                 5256     5256     666
     Sum        2701    2701    673               105015   105015   13205
 
 
   Real Mesh
   ---------
   Global Dimensions   Local  Dimensions   Processor Grid
   .X.   .Y.   .Z.     .X.   .Y.   .Z.     .X.   .Y.   .Z.
    60    60    60      60    60     3       1     1    20
   Array leading dimensions ( nr1x, nr2x, nr3x )   =     60    60    60
   Local number of cell to store the grid ( nrxx ) =      10800
   Number of x-y planes for each processors: 
  |  60,   3  |  60,   3  |  60,   3  |  60,   3  |  60,   3
  |  60,   3  |  60,   3  |  60,   3  |  60,   3  |  60,   3
  |  60,   3  |  60,   3  |  60,   3  |  60,   3  |  60,   3
  |  60,   3  |  60,   3  |  60,   3  |  60,   3  |  60,   3
 
   Smooth Real Mesh
   ----------------
   Global Dimensions   Local  Dimensions   Processor Grid
   .X.   .Y.   .Z.     .X.   .Y.   .Z.     .X.   .Y.   .Z.
    60    60    60      60    60     3       1     1    20
   Array leading dimensions ( nr1x, nr2x, nr3x )   =     60    60    60
   Local number of cell to store the grid ( nrxx ) =      10800
   Number of x-y planes for each processors: 
  |  60,   3  |  60,   3  |  60,   3  |  60,   3  |  60,   3
  |  60,   3  |  60,   3  |  60,   3  |  60,   3  |  60,   3
  |  60,   3  |  60,   3  |  60,   3  |  60,   3  |  60,   3
  |  60,   3  |  60,   3  |  60,   3  |  60,   3  |  60,   3
 
   Reciprocal Space Mesh
   ---------------------
   Large Mesh
     Global(ngm_g)    MinLocal       MaxLocal      Average
          52508           2623           2628        2625.40
   Smooth Mesh
     Global(ngms_g)   MinLocal       MaxLocal      Average
          52508           2623           2628        2625.40
   Wave function Mesh
     Global(ngw_g)    MinLocal       MaxLocal      Average
           6603            326            333         330.15


   System geometry initialization
   ------------------------------
   cell parameters read from restart file
   ibrav =    1       cell parameters 


   cell at current step : h(t)
      13.00000       0.00000       0.00000
       0.00000      13.00000       0.00000
       0.00000       0.00000      13.00000

   cell at previous step : h(t-dt)
      13.00000       0.00000       0.00000
       0.00000      13.00000       0.00000
       0.00000       0.00000      13.00000
 

   Matrix Multiplication Performances
   ortho mmul, time for parallel driver      =   0.00005 with   16 procs

   Constraints matrixes will be distributed block like on
   ortho sub-group =    4*   4 procs



   Pseudopotentials initialization
   -------------------------------


   Common initialization

   Specie:     1
   1  indv=  1   ang. mom=  0
   2  indv=  2   ang. mom=  0
   3  indv=  3   ang. mom=  1
   4  indv=  3   ang. mom=  1
   5  indv=  3   ang. mom=  1
   6  indv=  4   ang. mom=  1
   7  indv=  4   ang. mom=  1
   8  indv=  4   ang. mom=  1
 
                        dion 
   9.7572   0.0000   0.0000   0.0000
   0.0000   1.3761   0.0000   0.0000
   0.0000   0.0000  -4.8069   0.0000
   0.0000   0.0000   0.0000  -1.6162

   Specie:     2
   1  indv=  1   ang. mom=  0
   2  indv=  2   ang. mom=  0
 
                        dion 
 -12.0082   0.0000
   0.0000  -0.5168

   Cell parameters from input file are used in electron mass preconditioning
   init_tpiba2=    0.23360010
 
   Short Legend and Physical Units in the Output
   ---------------------------------------------
   NFI    [int]          - step index
   EKINC  [HARTREE A.U.] - kinetic energy of the fictitious electronic dynamics
   TEMPH  [K]            - Temperature of the fictitious cell dynamics
   TEMP   [K]            - Ionic temperature
   ETOT   [HARTREE A.U.] - Scf total energy (Kohn-Sham hamiltonian)
   ENTHAL [HARTREE A.U.] - Enthalpy ( ETOT + P * V )
   ECONS  [HARTREE A.U.] - Enthalpy + kinetic energy of ions and cell
   ECONT  [HARTREE A.U.] - Constant of motion for the CP lagrangian
 

   formf: eself=   242.55691
   formf:     vps(g=0)=  -0.0005593     rhops(g=0)=  -0.0026914
   formf:     vps(g=0)=  -0.0005508     rhops(g=0)=  -0.0026524
   formf:     vps(g=0)=  -0.0005508     rhops(g=0)=  -0.0026524
   formf:     vps(g=0)=  -0.0005265     rhops(g=0)=  -0.0025387
   formf:     vps(g=0)=  -0.0005265     rhops(g=0)=  -0.0025387
   formf: sum_g vps(g)=  -0.8825069 sum_g rhops(g)=  -4.3113902
   formf:     vps(g=0)=  -0.0002744     rhops(g=0)=  -0.0004486
   formf:     vps(g=0)=  -0.0002718     rhops(g=0)=  -0.0004421
   formf:     vps(g=0)=  -0.0002718     rhops(g=0)=  -0.0004421
   formf:     vps(g=0)=  -0.0002644     rhops(g=0)=  -0.0004231
   formf:     vps(g=0)=  -0.0002644     rhops(g=0)=  -0.0004231
   formf: sum_g vps(g)=  -1.1488875 sum_g rhops(g)=  -0.7185650
   Delta V(G=0):   0.022861Ry,    0.622068eV
 
  nfi     ekinc              temph  tempp     etot                 enthal               econs                econt              vnhh    xnhh0   vnhp    xnhp0
   1101    0.002540231962769    0.0 1054.75    -136.941566125469    -136.941566125469    -136.821318851483    -136.818778322168   0.0000   0.0000   0.0000   0.0000
   1102    0.002452515590070    0.0 1024.03    -136.937974159411    -136.937974159411    -136.821228895295    -136.818770933031   0.0000   0.0000   0.0000   0.0000
   1103    0.002362199242691    0.0  992.09    -136.934242281760    -136.934242281760    -136.821139370689    -136.818762040022   0.0000   0.0000   0.0000   0.0001
   1104    0.002271880210050    0.0  960.06    -136.930504828099    -136.930504828099    -136.821052846513    -136.818752255815   0.0000   0.0000   0.0000   0.0001
   1105    0.002182217714351    0.0  929.24    -136.926908065293    -136.926908065293    -136.820970247688    -136.818742441179   0.0000   0.0000   0.0000   0.0002
   1106    0.002096139749809    0.0  900.87    -136.923598448546    -136.923598448546    -136.820894586489    -136.818733196735   0.0000   0.0000   0.0000   0.0003
   1107    0.002020323748734    0.0  876.09    -136.920712228948    -136.920712228948    -136.820833087527    -136.818725482943   0.0000   0.0000   0.0000   0.0004
   1108    0.001960440770493    0.0  855.85    -136.918363317872    -136.918363317872    -136.820791900327    -136.818720074089   0.0000   0.0000   0.0000   0.0005
   1109    0.001917073842475    0.0  840.85    -136.916632920105    -136.916632920105    -136.820771634677    -136.818717170113   0.0000   0.0000   0.0000   0.0007
   1110    0.001888550757122    0.0  831.49    -136.915564474498    -136.915564474498    -136.820770545093    -136.818716751566   0.0000   0.0000   0.0000   0.0008
   1111    0.001875403336009    0.0  827.80    -136.915162399355    -136.915162399355    -136.820789291987    -136.818718892566   0.0000   0.0000   0.0000   0.0010
   1112    0.001879131975295    0.0  829.47    -136.915392852811    -136.915392852811    -136.820829293876    -136.818723365128   0.0000   0.0000   0.0000   0.0011
   1113    0.001897960204124    0.0  835.93    -136.916188597274    -136.916188597274    -136.820888228799    -136.818729404773   0.0000   0.0000   0.0000   0.0013
   1114    0.001926563736924    0.0  846.44    -136.917458417163    -136.917458417163    -136.820960383294    -136.818736348822   0.0000   0.0000   0.0000   0.0015
   1115    0.001960022991663    0.0  860.10    -136.919096692732    -136.919096692732    -136.821040490844    -136.818743540170   0.0000   0.0000   0.0000   0.0017
   1116    0.001996827479235    0.0  875.98    -136.920992961901    -136.920992961901    -136.821126823339    -136.818750432179   0.0000   0.0000   0.0000   0.0019
   1117    0.002037335848179    0.0  893.13    -136.923040786877    -136.923040786877    -136.821219439773    -136.818756393980   0.0000   0.0000   0.0000   0.0022
   1118    0.002080491127638    0.0  910.74    -136.925146312828    -136.925146312828    -136.821317231697    -136.818761053834   0.0000   0.0000   0.0001   0.0024
   1119    0.002122792657151    0.0  928.18    -136.927233877096    -136.927233877096    -136.821416986999    -136.818764399401   0.0000   0.0000   0.0001   0.0027
   1120    0.002160651692766    0.0  944.98    -136.929248127044    -136.929248127044    -136.821515182934    -136.818766219578   0.0000   0.0000   0.0001   0.0029
   1121    0.002193560051725    0.0  960.87    -136.931155718384    -136.931155718384    -136.821611715191    -136.818766666540   0.0000   0.0000   0.0001   0.0032
   1122    0.002223355300525    0.0  975.70    -136.932943492173    -136.932943492173    -136.821708935026    -136.818766026419   0.0000   0.0000   0.0001   0.0035
   1123    0.002251102254908    0.0  989.49    -136.934614852494    -136.934614852494    -136.821808311952    -136.818764495475   0.0000   0.0000   0.0001   0.0039
   1124    0.002276161620314    0.0 1002.38    -136.936186415861    -136.936186415861    -136.821909781350    -136.818762450462   0.0000   0.0000   0.0001   0.0042
   1125    0.002297855046767    0.0 1014.60    -136.937683343030    -136.937683343030    -136.822013287323    -136.818760316493   0.0000   0.0000   0.0001   0.0046
   1126    0.002317238039541    0.0 1026.39    -136.939133776852    -136.939133776852    -136.822120402305    -136.818758405497   0.0000   0.0000   0.0001   0.0049
   1127    0.002336972581465    0.0 1037.93    -136.940563955341    -136.940563955341    -136.822234079576    -136.818756791022   0.0000   0.0000   0.0001   0.0054
   1128    0.002359541664769    0.0 1049.41    -136.941995319153    -136.941995319153    -136.822357273668    -136.818755711674   0.0000   0.0000   0.0001   0.0058
   1129    0.002385376261119    0.0 1060.92    -136.943441618736    -136.943441618736    -136.822490910192    -136.818755413553   0.0000   0.0000   0.0001   0.0062
   1130    0.002413089231436    0.0 1072.52    -136.944906789150    -136.944906789150    -136.822633782192    -136.818755815063   0.0000   0.0000   0.0001   0.0067
   1131    0.002441408309249    0.0 1084.16    -136.946385246197    -136.946385246197    -136.822784841761    -136.818756871993   0.0000   0.0000   0.0001   0.0072
   1132    0.002469618685993    0.0 1095.73    -136.947862255336    -136.947862255336    -136.822943629966    -136.818758575297   0.0000   0.0000   0.0001   0.0077
   1133    0.002496984302453    0.0 1107.01    -136.949314568763    -136.949314568763    -136.823109393339    -136.818760659335   0.0000   0.0000   0.0001   0.0083
   1134    0.002523312835812    0.0 1117.76    -136.950713089976    -136.950713089976    -136.823282080102    -136.818763047639   0.0000   0.0000   0.0001   0.0088
   1135    0.002549110320222    0.0 1127.69    -136.952024903797    -136.952024903797    -136.823462297633    -136.818765670978   0.0000   0.0000   0.0001   0.0094
   1136    0.002574293334842    0.0 1136.49    -136.953215307149    -136.953215307149    -136.823649806355    -136.818768263112   0.0000   0.0000   0.0001   0.0100
   1137    0.002597076052386    0.0 1143.88    -136.954250821421    -136.954250821421    -136.823842672273    -136.818770636786   0.0000   0.0000   0.0001   0.0107
   1138    0.002614536347581    0.0 1149.63    -136.955101351827    -136.955101351827    -136.824037885460    -136.818772742767   0.0000   0.0000   0.0001   0.0114
   1139    0.002624654960274    0.0 1153.53    -136.955741250228    -136.955741250228    -136.824233261186    -136.818774536694   0.0000   0.0000   0.0001   0.0121
   1140    0.002627622527863    0.0 1155.40    -136.956150526126    -136.956150526126    -136.824428631207    -136.818775867293   0.0000   0.0000   0.0001   0.0128
   1141    0.002624908039520    0.0 1155.14    -136.956316900459    -136.956316900459    -136.824625030658    -136.818776594968   0.0000   0.0000   0.0002   0.0135
   1142    0.002617317156731    0.0 1152.71    -136.956237437307    -136.956237437307    -136.824822940620    -136.818776768835   0.0000   0.0000   0.0002   0.0143
   1143    0.002604434407267    0.0 1148.17    -136.955918407498    -136.955918407498    -136.825021532122    -136.818776414317   0.0000   0.0000   0.0002   0.0151
   1144    0.002586294115750    0.0 1141.66    -136.955375172292    -136.955375172292    -136.825220140815    -136.818775319051   0.0000   0.0000   0.0002   0.0160
   1145    0.002564745013549    0.0 1133.40    -136.954633689646    -136.954633689646    -136.825420139557    -136.818773520647   0.0000   0.0000   0.0002   0.0168
   1146    0.002541435636740    0.0 1123.70    -136.953730331820    -136.953730331820    -136.825622945751    -136.818771303532   0.0000   0.0000   0.0002   0.0177
   1147    0.002515565028105    0.0 1112.95    -136.952709778836    -136.952709778836    -136.825827112569    -136.818768508316   0.0000   0.0000   0.0002   0.0186
   1148    0.002486036401233    0.0 1101.65    -136.951624951573    -136.951624951573    -136.826031118176    -136.818765134409   0.0000   0.0000   0.0002   0.0196
   1149    0.002454482679687    0.0 1090.29    -136.950535656969    -136.950535656969    -136.826236576972    -136.818761497151   0.0000   0.0000   0.0002   0.0205
   1150    0.002424849439364    0.0 1079.41    -136.949505294805    -136.949505294805    -136.826447301262    -136.818757683673   0.0000   0.0000   0.0002   0.0215
   1151    0.002400753119989    0.0 1069.53    -136.948598770565    -136.948598770565    -136.826667196738    -136.818754069813   0.0000   0.0000   0.0002   0.0225
   1152    0.002382847799451    0.0 1061.18    -136.947878138876    -136.947878138876    -136.826897517211    -136.818751189850   0.0000   0.0000   0.0002   0.0236
   1153    0.002369551849770    0.0 1054.86    -136.947396870930    -136.947396870930    -136.827136759348    -136.818748894738   0.0000   0.0000   0.0002   0.0246
   1154    0.002361451027435    0.0 1050.94    -136.947198368076    -136.947198368076    -136.827385895238    -136.818747186918   0.0000   0.0000   0.0002   0.0257
   1155    0.002362110807566    0.0 1049.64    -136.947313961461    -136.947313961461    -136.827649581547    -136.818746636855   0.0000   0.0000   0.0002   0.0268
   1156    0.002373616590221    0.0 1051.07    -136.947758059932    -136.947758059932    -136.827930579859    -136.818747290129   0.0000   0.0000   0.0002   0.0279
   1157    0.002394247779096    0.0 1055.21    -136.948527141073    -136.948527141073    -136.828227769160    -136.818749035184   0.0000   0.0000   0.0002   0.0291
   1158    0.002420565624634    0.0 1061.90    -136.949600778503    -136.949600778503    -136.828538325367    -136.818751728473   0.0000   0.0000   0.0002   0.0302
   1159    0.002450793466835    0.0 1070.85    -136.950943617173    -136.950943617173    -136.828861034106    -136.818755167496   0.0000   0.0000   0.0002   0.0314
   1160    0.002485870885960    0.0 1081.63    -136.952508367615    -136.952508367615    -136.829197401581    -136.818759192056   0.0000   0.0000   0.0002   0.0326
   1161    0.002527501555313    0.0 1093.72    -136.954239251231    -136.954239251231    -136.829549303043    -136.818763324789   0.0000   0.0000   0.0002   0.0339
   1162    0.002575679873347    0.0 1106.62    -136.956077301639    -136.956077301639    -136.829917096915    -136.818767386146   0.0000   0.0000   0.0003   0.0351
   1163    0.002627270121300    0.0 1119.83    -136.957963914638    -136.957963914638    -136.830297818333    -136.818771122270   0.0000   0.0000   0.0003   0.0364
   1164    0.002677575171308    0.0 1132.91    -136.959844359797    -136.959844359797    -136.830686802411    -136.818774263853   0.0000   0.0000   0.0003   0.0377
   1165    0.002723743538261    0.0 1145.47    -136.961670671881    -136.961670671881    -136.831081501233    -136.818776938285   0.0000   0.0000   0.0003   0.0390
   1166    0.002766200137677    0.0 1157.13    -136.963401318793    -136.963401318793    -136.831482494606    -136.818779253973   0.0000   0.0000   0.0003   0.0404
   1167    0.002807320701035    0.0 1167.56    -136.965000195444    -136.965000195444    -136.831892125498    -136.818781266317   0.0000   0.0000   0.0003   0.0418
   1168    0.002848506494632    0.0 1176.47    -136.966435369269    -136.966435369269    -136.832311793916    -136.818783198439   0.0000   0.0000   0.0003   0.0432
   1169    0.002888073088083    0.0 1183.60    -136.967676267538    -136.967676267538    -136.832739666056    -136.818785260372   0.0000   0.0000   0.0003   0.0446
   1170    0.002922722494047    0.0 1188.71    -136.968690797231    -136.968690797231    -136.833172023416    -136.818787530065   0.0000   0.0000   0.0003   0.0461
   1171    0.002950926235154    0.0 1191.50    -136.969443661635    -136.969443661635    -136.833606867254    -136.818790192115   0.0000   0.0000   0.0003   0.0476
   1172    0.002973740713338    0.0 1191.62    -136.969895086684    -136.969895086684    -136.834044336171    -136.818793168589   0.0000   0.0000   0.0003   0.0491
   1173    0.002992457665251    0.0 1188.69    -136.970001950933    -136.970001950933    -136.834484523296    -136.818796313408   0.0000   0.0000   0.0003   0.0506
   1174    0.003005720961566    0.0 1182.36    -136.969720110590    -136.969720110590    -136.834924497835    -136.818799331854   0.0000   0.0000   0.0003   0.0522
   1175    0.003009725309691    0.0 1172.32    -136.969008470696    -136.969008470696    -136.835358423807    -136.818801699090   0.0000   0.0000   0.0003   0.0538
   1176    0.003001056048506    0.0 1158.32    -136.967835014325    -136.967835014325    -136.835781031435    -136.818803276126   0.0000   0.0000   0.0003   0.0554
   1177    0.002978483769203    0.0 1140.23    -136.966181273401    -136.966181273401    -136.836188677831    -136.818803545414   0.0000   0.0000   0.0003   0.0570
   1178    0.002943057562469    0.0 1118.09    -136.964048605177    -136.964048605177    -136.836580105854    -136.818802224940   0.0000   0.0000   0.0003   0.0587
   1179    0.002895981863855    0.0 1092.13    -136.961462380938    -136.961462380938    -136.836954303479    -136.818799171754   0.0000   0.0000   0.0003   0.0604
   1180    0.002837011348760    0.0 1062.81    -136.958474327869    -136.958474327869    -136.837308689689    -136.818794067611   0.0000   0.0000   0.0003   0.0621
   1181    0.002765836695961    0.0 1030.86    -136.955164403444    -136.955164403444    -136.837641525015    -136.818787323868   0.0000   0.0000   0.0003   0.0638
   1182    0.002683847563768    0.0  997.18    -136.951636827270    -136.951636827270    -136.837952987970    -136.818779278562   0.0000   0.0000   0.0003   0.0656
   1183    0.002595464585042    0.0  962.84    -136.948014901903    -136.948014901903    -136.838246615764    -136.818770206530   0.0000   0.0000   0.0004   0.0673
   1184    0.002507183659264    0.0  928.96    -136.944434946255    -136.944434946255    -136.838529069341    -136.818760964733   0.0000   0.0000   0.0004   0.0691
   1185    0.002423840534249    0.0  896.71    -136.941035661197    -136.941035661197    -136.838805762833    -136.818752307422   0.0000   0.0000   0.0004   0.0708
   1186    0.002347349121752    0.0  867.22    -136.937947221562    -136.937947221562    -136.839079486888    -136.818744755900   0.0000   0.0000   0.0004   0.0726
   1187    0.002279211596946    0.0  841.44    -136.935281824342    -136.935281824342    -136.839353209842    -136.818738920782   0.0000   0.0000   0.0004   0.0744
   1188    0.002222101659759    0.0  820.08    -136.933124664560    -136.933124664560    -136.839631430264    -136.818735350854   0.0000   0.0000   0.0004   0.0762
   1189    0.002178526773712    0.0  803.55    -136.931527137676    -136.931527137676    -136.839918441637    -136.818734249625   0.0000   0.0000   0.0004   0.0780
   1190    0.002149015446222    0.0  791.96    -136.930504079721    -136.930504079721    -136.840216539823    -136.818735625199   0.0000   0.0000   0.0004   0.0798
   1191    0.002132244754981    0.0  785.12    -136.930034021150    -136.930034021150    -136.840525800716    -136.818739073393   0.0000   0.0000   0.0004   0.0816
   1192    0.002126729645146    0.0  782.57    -136.930063521692    -136.930063521692    -136.840845992989    -136.818744129601   0.0000   0.0000   0.0004   0.0834
   1193    0.002130917842368    0.0  783.62    -136.930513825852    -136.930513825852    -136.841176594951    -136.818750302462   0.0000   0.0000   0.0004   0.0852
   1194    0.002141981653116    0.0  787.46    -136.931289463335    -136.931289463335    -136.841515329847    -136.818756898157   0.0000   0.0000   0.0004   0.0869
   1195    0.002155959434630    0.0  793.21    -136.932288422759    -136.932288422759    -136.841858751163    -136.818763508712   0.0000   0.0000   0.0004   0.0887
   1196    0.002169492920493    0.0  800.03    -136.933410350974    -136.933410350974    -136.842203286560    -136.818769332131   0.0000   0.0000   0.0004   0.0905
   1197    0.002181378963817    0.0  807.14    -136.934565703322    -136.934565703322    -136.842547676193    -136.818774046975   0.0000   0.0000   0.0004   0.0923
   1198    0.002190545685690    0.0  813.91    -136.935681094407    -136.935681094407    -136.842890707793    -136.818777533012   0.0000   0.0000   0.0004   0.0941
   1199    0.002194103463464    0.0  819.91    -136.936702421989    -136.936702421989    -136.843228835394    -136.818779376261   0.0000   0.0000   0.0004   0.0959

 * Physical Quantities at step:  1200

   from rhoofr: total integrated electronic density
   in g-space =     64.000000   in r-space =    64.000000


                total energy =     -136.93759829504 Hartree a.u.
              kinetic energy =       97.23349 Hartree a.u.
        electrostatic energy =     -185.20945 Hartree a.u.
                         esr =        0.01070 Hartree a.u.
                       eself =      242.55691 Hartree a.u.
      pseudopotential energy =       -9.29783 Hartree a.u.
  n-l pseudopotential energy =       -6.08572 Hartree a.u.
 exchange-correlation energy =      -33.57809 Hartree a.u.
           average potential =        0.00000 Hartree a.u.



   Eigenvalues (eV), kp =   1 , spin =  1

  -23.35  -23.01  -22.89  -22.79  -22.52  -22.40  -22.10  -21.23  -11.19  -11.07
  -10.95  -10.42  -10.14   -9.64   -9.41   -8.83   -8.18   -7.88   -7.78   -7.32
   -7.10   -6.57   -6.46   -5.72   -5.15   -4.98   -4.88   -4.74   -4.63   -4.51
   -4.33   -3.93
 
 
   CELL_PARAMETERS
   13.00000000    0.00000000    0.00000000
    0.00000000   13.00000000    0.00000000
    0.00000000    0.00000000   13.00000000

   System Density [g/cm^3] :              0.7351364820


   System Volume [A.U.^3] :           2197.0000000000


   Center of mass square displacement (a.u.):   0.000000

   ATOMIC_POSITIONS
   O       0.74845060333739E+01     0.31999613961697E+01     0.34934045514645E+01
   H       0.56915145084280E+01     0.38279212626433E+01     0.31677196332006E+01
   H       0.76327187771571E+01     0.15122390455445E+01     0.30581477411156E+01
   O       0.37060281599104E+01    -0.57389443756986E+01     0.20703407111627E+01
   H       0.48598942802525E+01    -0.40080795218950E+01     0.20958736926062E+01
   H       0.22178269150140E+01    -0.47815397820056E+01     0.20732093490500E+01
   O      -0.55805458001000E+01    -0.21963981877284E+01     0.33758049255799E+01
   H      -0.38155483083441E+01    -0.20335479538796E+01     0.29455699247851E+01
   H      -0.53380984903571E+01    -0.25385801176337E+01     0.52964048032498E+01
   O      -0.14193886875488E+01     0.59923754499272E+01     0.20848915994982E+01
   H      -0.27819902860366E+01     0.49060732301325E+01     0.28270958252416E+01
   H      -0.56043459808072E+00     0.48669215976920E+01     0.62580166105988E+00
   O       0.12663311168611E+01    -0.52101245412948E+01    -0.34641656472667E+01
   H       0.20132717033451E+01    -0.42636303548834E+01    -0.17930972572111E+01
   H       0.22603896673070E+01    -0.38638619337606E+01    -0.43718419467802E+01
   O      -0.51177696243709E+01    -0.39534479317482E+01    -0.49093713280668E+01
   H      -0.49477998343895E+01    -0.24112333648579E+01    -0.36831787305568E+01
   H      -0.46103151037780E+01    -0.57307706230138E+01    -0.40140095986223E+01
   O      -0.43799753334554E+01     0.53153880209939E+01    -0.19112275558652E+01
   H      -0.30969850305739E+01     0.59512349093909E+01    -0.31863593244345E+00
   H      -0.54141573447263E+01     0.40847330916788E+01    -0.12633305633765E+01
   O       0.40227092640243E+01     0.25193106323061E+01    -0.35261638143347E+01
   H       0.26450132669381E+01     0.16636353550010E+01    -0.24653745695920E+01
   H       0.35321073001407E+01     0.39595433929935E+01    -0.42793245603580E+01
 
   ATOMIC_VELOCITIES
   O       0.55560155541406E-03     0.35995716066448E-04     0.39504484748387E-04
   H      -0.60465561344588E-03    -0.27299781524749E-03    -0.10369584329875E-02
   H       0.64065757453574E-03     0.25128827475132E-03     0.13181667357230E-02
   O       0.17172398699431E-03    -0.26558066861792E-03     0.15949292548638E-03
   H      -0.12053620837555E-02    -0.73417745804573E-03     0.59699374812434E-03
   H      -0.35370594785489E-02     0.17437360956854E-02    -0.92675267462186E-03
   O      -0.16515094078369E-03     0.26516734214730E-03    -0.13405925119331E-04
   H       0.20739744097904E-02    -0.15031393127507E-02    -0.14835401530301E-02
   H      -0.54954287011570E-03    -0.15991370030067E-03    -0.10658112623357E-02
   O       0.13918616230119E-03     0.10948410560644E-03     0.99624443288085E-04
   H       0.15943204229359E-02    -0.14535027570343E-03    -0.37847635493770E-03
   H      -0.40754594455455E-03    -0.40841055496741E-03     0.13109047670022E-03
   O      -0.25384830866208E-03     0.40803161722502E-04    -0.17870657871882E-03
   H       0.33651961593580E-03     0.73098430550060E-03     0.16549803042664E-02
   H      -0.11739690549466E-02    -0.16014032214432E-02     0.86207528799418E-03
   O      -0.25920375120072E-03     0.61383207044143E-03    -0.21132081336637E-03
   H       0.20993523091888E-03    -0.83735236824961E-03    -0.16541044488999E-03
   H       0.10203168214851E-02    -0.15617026874961E-02     0.46018315895897E-03
   O      -0.20220283121897E-03     0.76748612252225E-04    -0.18274678536481E-03
   H      -0.42751141361313E-03    -0.79691132968601E-03     0.15253012457545E-03
   H       0.64134113845031E-03    -0.29327583916321E-02     0.30386622629867E-02
   O      -0.90298780385956E-04    -0.17939483062582E-03     0.12401294107161E-03
   H       0.23327455763909E-02    -0.65963818448707E-03    -0.15217763862230E-02
   H       0.70985543306402E-03    -0.21777242995230E-02     0.96025844013076E-03
 
   Forces acting on atoms (au):
   O      -0.26878063119220E-01     0.64548175426263E-01     0.54835505590194E-02
   H       0.37397183857494E-01    -0.11342275566183E-01     0.48333807699453E-02
   H      -0.91908318183228E-02    -0.52692795042823E-01    -0.76321049066797E-02
   O       0.59465813695966E-01     0.56198901000517E-01    -0.73742265419010E-02
   H      -0.90259530408656E-02    -0.62869581721965E-01     0.57470269121534E-02
   H      -0.46315700562987E-01     0.44995978192919E-03     0.76425055001226E-02
   O       0.89711772046368E-02     0.80633321305732E-02     0.25210256594146E-01
   H       0.29601814721955E-02    -0.68378581104118E-02    -0.10712748179033E-01
   H      -0.12061985000472E-01    -0.99485831330621E-02    -0.18407893293853E-01
   O       0.20982315727765E-01    -0.34697806739228E-01    -0.51104675283894E-01
   H       0.14183509662229E-02     0.55750351554830E-03     0.72338628867314E-04
   H      -0.19633843614228E-01     0.31748224989560E-01     0.55487062470295E-01
   O       0.47156415043745E-01     0.70333885909120E-01     0.47413039252793E-01
   H      -0.29477164254098E-01    -0.50397453652901E-01    -0.35737061172915E-01
   H      -0.16547400981873E-01    -0.26865872693421E-01    -0.15362880796391E-01
   O       0.74769280845735E-02     0.27358699927244E-01     0.27692539192669E-01
   H      -0.17847232585803E-02    -0.54708970355567E-01    -0.29531793922106E-01
   H      -0.13383703073864E-01     0.38801351546867E-01    -0.12011917764145E-02
   O       0.77903078905676E-01     0.53154390619794E-01     0.14565874317563E-01
   H      -0.45915855405057E-01    -0.12666815821702E-01    -0.41700604293947E-01
   H      -0.40253085265317E-01    -0.37562917997055E-01     0.18330046933265E-01
   O       0.96265980644938E-02    -0.10591035959568E+00     0.61890479403299E-01
   H       0.28382038749072E-01     0.34485850346961E-01    -0.33410546641761E-01
   H      -0.38692133851526E-01     0.74289466047299E-01    -0.29279833522350E-01
 


   Partial temperatures (for each ionic specie) 
   Species  Temp (K)   Mean Square Displacement (a.u.)
        1   4.98E+02     4.5904E+00
        2   9.88E+02     8.6599E+00
 
  nfi     ekinc              temph  tempp     etot                 enthal               econs                econt              vnhh    xnhh0   vnhp    xnhp0
   1200    0.002189972055626    0.0  824.86    -136.937598295037    -136.937598295037    -136.843559771584    -136.818779760580   0.0000   0.0000   0.0004   0.0977
   1201    0.002179775453108    0.0  828.68    -136.938358416721    -136.938358416721    -136.843884994820    -136.818779012848   0.0000   0.0000   0.0004   0.0995
   1202    0.002168036937057    0.0  831.37    -136.938989714422    -136.938989714422    -136.844208786417    -136.818777388938   0.0000   0.0000   0.0004   0.1012
   1203    0.002158462004637    0.0  833.10    -136.939512474520    -136.939512474520    -136.844534749820    -136.818775258925   0.0000   0.0000   0.0004   0.1030
   1204    0.002151035972299    0.0  834.11    -136.939955353747    -136.939955353747    -136.844862906814    -136.818773057989   0.0000   0.0000   0.0004   0.1048
   1205    0.002143455438691    0.0  834.69    -136.940349696916    -136.940349696916    -136.845190817095    -136.818770941933   0.0000   0.0000   0.0004   0.1066
   1206    0.002134832164737    0.0  835.12    -136.940725364381    -136.940725364381    -136.845517757750    -136.818769256960   0.0000   0.0000   0.0004   0.1083
   1207    0.002126147651561    0.0  835.59    -136.941106077215    -136.941106077215    -136.845844865940    -136.818768245654   0.0000   0.0000   0.0004   0.1101
   1208    0.002118249771239    0.0  836.22    -136.941506378266    -136.941506378266    -136.846172959039    -136.818767898981   0.0000   0.0000   0.0004   0.1119
   1209    0.002111082125123    0.0  837.06    -136.941930984316    -136.941930984316    -136.846502165684    -136.818768389042   0.0000   0.0000   0.0004   0.1136
   1210    0.002104470845565    0.0  838.05    -136.942374178954    -136.942374178954    -136.846832028394    -136.818769418153   0.0000   0.0000   0.0004   0.1154
   1211    0.002098960061869    0.0  839.08    -136.942822555696    -136.942822555696    -136.847162953173    -136.818770865637   0.0000   0.0000   0.0003   0.1171
   1212    0.002094242084862    0.0  839.99    -136.943257331670    -136.943257331670    -136.847494452179    -136.818772623809   0.0000   0.0000   0.0003   0.1189
   1213    0.002088327884492    0.0  840.60    -136.943656945453    -136.943656945453    -136.847823904429    -136.818774197915   0.0000   0.0000   0.0003   0.1206
   1214    0.002080034563315    0.0  840.77    -136.944001855369    -136.944001855369    -136.848149867517    -136.818775530661   0.0000   0.0000   0.0003   0.1224
   1215    0.002070514123862    0.0  840.35    -136.944276866350    -136.944276866350    -136.848472963493    -136.818776354376   0.0000   0.0000   0.0003   0.1241
   1216    0.002061747740619    0.0  839.25    -136.944474195921    -136.944474195921    -136.848794784393    -136.818776587411   0.0000   0.0000   0.0003   0.1258
   1217    0.002053235262224    0.0  837.51    -136.944594974710    -136.944594974710    -136.849114629197    -136.818776351002   0.0000   0.0000   0.0003   0.1276
   1218    0.002041478860805    0.0  835.23    -136.944648849941    -136.944648849941    -136.849428517853    -136.818775459474   0.0000   0.0000   0.0003   0.1293
   1219    0.002024172643030    0.0  832.60    -136.944654614919    -136.944654614919    -136.849734039070    -136.818774044280   0.0000   0.0000   0.0003   0.1310
   1220    0.002002959573606    0.0  829.83    -136.944638411955    -136.944638411955    -136.850033029068    -136.818772456614   0.0000   0.0000   0.0003   0.1327
   1221    0.001981361705049    0.0  827.16    -136.944630041056    -136.944630041056    -136.850329085145    -136.818770841458   0.0000   0.0000   0.0003   0.1344
   1222    0.001962035811697    0.0  824.84    -136.944660646096    -136.944660646096    -136.850624787504    -136.818769096009   0.0000   0.0000   0.0003   0.1360
   1223    0.001946251041782    0.0  823.12    -136.944761725547    -136.944761725547    -136.850921967603    -136.818767654175   0.0000   0.0000   0.0003   0.1377
   1224    0.001933974151035    0.0  822.24    -136.944961129722    -136.944961129722    -136.851221014295    -136.818766709192   0.0000   0.0000   0.0003   0.1394
   1225    0.001924592850900    0.0  822.41    -136.945280676101    -136.945280676101    -136.851521596686    -136.818766225765   0.0000   0.0000   0.0003   0.1410
   1226    0.001917743698530    0.0  823.75    -136.945735632123    -136.945735632123    -136.851823781657    -136.818766250328   0.0000   0.0000   0.0003   0.1427
   1227    0.001913800855045    0.0  826.33    -136.946334337589    -136.946334337589    -136.852128115299    -136.818766527716   0.0000   0.0000   0.0003   0.1443
   1228    0.001914085224508    0.0  830.17    -136.947079811297    -136.947079811297    -136.852436474371    -136.818767166815   0.0000   0.0000   0.0003   0.1459
   1229    0.001919421633713    0.0  835.22    -136.947969951279    -136.947969951279    -136.852749985689    -136.818768020901   0.0000   0.0000   0.0003   0.1476
   1230    0.001928954739801    0.0  841.46    -136.948999292204    -136.948999292204    -136.853068142531    -136.818768997989   0.0000   0.0000   0.0003   0.1492
   1231    0.001940810453607    0.0  848.83    -136.950160574657    -136.950160574657    -136.853389354002    -136.818769952477   0.0000   0.0000   0.0003   0.1508
   1232    0.001954358612766    0.0  857.27    -136.951446514153    -136.951446514153    -136.853713172021    -136.818770652098   0.0000   0.0000   0.0003   0.1524
   1233    0.001971151806587    0.0  866.71    -136.952851741130    -136.952851741130    -136.854041791964    -136.818771342288   0.0000   0.0000   0.0003   0.1539
   1234    0.001992536495595    0.0  877.11    -136.954371906487    -136.954371906487    -136.854376823329    -136.818771903832   0.0000   0.0000   0.0003   0.1555
   1235    0.002017871336571    0.0  888.44    -136.956004399699    -136.956004399699    -136.854717971894    -136.818772307791   0.0000   0.0000   0.0003   0.1571
   1236    0.002045060516692    0.0  900.70    -136.957748213271    -136.957748213271    -136.855063639378    -136.818772670777   0.0000   0.0000   0.0003   0.1586
   1237    0.002072312172941    0.0  913.91    -136.959602515375    -136.959602515375    -136.855412474138    -136.818773041895   0.0000   0.0000   0.0003   0.1602
   1238    0.002099574424371    0.0  928.03    -136.961565529791    -136.961565529791    -136.855765023512    -136.818773622632   0.0000   0.0000   0.0003   0.1617
   1239    0.002128289444068    0.0  943.02    -136.963632639980    -136.963632639980    -136.856123217756    -136.818774506758   0.0000   0.0000   0.0003   0.1633
   1240    0.002160566151847    0.0  958.78    -136.965794998827    -136.965794998827    -136.856489512426    -136.818775663149   0.0000   0.0000   0.0003   0.1648
   1241    0.002198476700081    0.0  975.15    -136.968038888825    -136.968038888825    -136.856866358501    -136.818777123774   0.0000   0.0000   0.0003   0.1664
   1242    0.002242491309085    0.0  991.97    -136.970344640775    -136.970344640775    -136.857254783070    -136.818779143974   0.0000   0.0000   0.0003   0.1679
   1243    0.002290197993102    0.0 1009.01    -136.972684702753    -136.972684702753    -136.857652533141    -136.818781641089   0.0000   0.0000   0.0003   0.1694
   1244    0.002338129735446    0.0 1025.99    -136.975024081924    -136.975024081924    -136.858056290230    -136.818784599974   0.0000   0.0000   0.0003   0.1709
   1245    0.002384648869465    0.0 1042.55    -136.977320565621    -136.977320565621    -136.858464574826    -136.818788118966   0.0000   0.0000   0.0003   0.1724
   1246    0.002430548988190    0.0 1058.25    -136.979524402842    -136.979524402842    -136.858877886840    -136.818791980483   0.0000   0.0000   0.0003   0.1740
   1247    0.002476872944488    0.0 1072.61    -136.981580111793    -136.981580111793    -136.859297013662    -136.818796170118   0.0000   0.0000   0.0003   0.1755
   1248    0.002521732315663    0.0 1085.11    -136.983427789126    -136.983427789126    -136.859719549999    -136.818800594843   0.0000   0.0000   0.0003   0.1770
   1249    0.002560340784991    0.0 1095.26    -136.985004943668    -136.985004943668    -136.860140028892    -136.818805189490   0.0000   0.0000   0.0003   0.1785
   1250    0.002588963775026    0.0 1102.54    -136.986248446373    -136.986248446373    -136.860553560675    -136.818809615302   0.0000   0.0000   0.0003   0.1800
   1251    0.002608532002063    0.0 1106.43    -136.987098253307    -136.987098253307    -136.860959720084    -136.818813545658   0.0000   0.0000   0.0003   0.1816
   1252    0.002622840133959    0.0 1106.44    -136.987501407344    -136.987501407344    -136.861360915918    -136.818816840528   0.0000   0.0000   0.0003   0.1831
   1253    0.002633018930237    0.0 1102.22    -136.987415466710    -136.987415466710    -136.861756474449    -136.818819136835   0.0000   0.0000   0.0003   0.1846
   1254    0.002635219147794    0.0 1093.57    -136.986813297528    -136.986813297528    -136.862140769811    -136.818820246502   0.0000   0.0000   0.0003   0.1861
   1255    0.002623799781531    0.0 1080.48    -136.985686809199    -136.985686809199    -136.862506122377    -136.818819802486   0.0000   0.0000   0.0003   0.1876
   1256    0.002596430908066    0.0 1063.13    -136.984051001369    -136.984051001369    -136.862848373586    -136.818817663324   0.0000   0.0000   0.0003   0.1892
   1257    0.002555466584840    0.0 1041.87    -136.981946272828    -136.981946272828    -136.863168138663    -136.818813722482   0.0000   0.0000   0.0003   0.1907
   1258    0.002505078871934    0.0 1017.25    -136.979439492505    -136.979439492505    -136.863468205604    -136.818808092733   0.0000   0.0000   0.0003   0.1922
   1259    0.002448098225987    0.0  990.06    -136.976622739992    -136.976622739992    -136.863750334622    -136.818800974325   0.0000   0.0000   0.0003   0.1937
   1260    0.002385892586698    0.0  961.32    -136.973610305159    -136.973610305159    -136.864015102106    -136.818792530280   0.0000   0.0000   0.0003   0.1952
   1261    0.002320098874934    0.0  932.15    -136.970534281950    -136.970534281950    -136.864264216534    -136.818783397832   0.0000   0.0000   0.0003   0.1967
   1262    0.002253354537098    0.0  903.78    -136.967536321807    -136.967536321807    -136.864500629202    -136.818774021511   0.0000   0.0000   0.0003   0.1982
   1263    0.002189484099671    0.0  877.42    -136.964759329009    -136.964759329009    -136.864729291784    -136.818765209568   0.0000   0.0000   0.0003   0.1997
   1264    0.002132856094564    0.0  854.18    -136.962336865494    -136.962336865494    -136.864956008615    -136.818757647873   0.0000   0.0000   0.0003   0.2012
   1265    0.002087543441699    0.0  835.02    -136.960383332419    -136.960383332419    -136.865186448951    -136.818751801891   0.0000   0.0000   0.0003   0.2026
   1266    0.002056402475768    0.0  820.67    -136.958985958283    -136.958985958283    -136.865425431409    -136.818748198414   0.0000   0.0000   0.0003   0.2041
   1267    0.002040220011484    0.0  811.56    -136.958197621943    -136.958197621943    -136.865675577638    -136.818747027654   0.0000   0.0000   0.0003   0.2055
   1268    0.002037993731704    0.0  807.81    -136.958033053473    -136.958033053473    -136.865937953151    -136.818748611675   0.0000   0.0000   0.0003   0.2069
   1269    0.002047935669520    0.0  809.22    -136.958466913903    -136.958466913903    -136.866212070465    -136.818752517011   0.0000   0.0000   0.0003   0.2084
   1270    0.002068988988188    0.0  815.23    -136.959438151673    -136.959438151673    -136.866498080376    -136.818758336866   0.0000   0.0000   0.0003   0.2098
   1271    0.002100259081903    0.0  825.05    -136.960855798881    -136.960855798881    -136.866796068641    -136.818765647690   0.0000   0.0000   0.0003   0.2111
   1272    0.002139163965936    0.0  837.70    -136.962605987240    -136.962605987240    -136.867103852008    -136.818773720787   0.0000   0.0000   0.0003   0.2125
   1273    0.002181328492126    0.0  852.11    -136.964561883128    -136.964561883128    -136.867417308583    -136.818781997261   0.0000   0.0000   0.0003   0.2139
   1274    0.002222228748913    0.0  867.17    -136.966593509870    -136.966593509870    -136.867731642902    -136.818789723297   0.0000   0.0000   0.0003   0.2152
   1275    0.002259138498205    0.0  881.84    -136.968577901813    -136.968577901813    -136.868043950960    -136.818796563501   0.0000   0.0000   0.0003   0.2166
   1276    0.002290857481902    0.0  895.16    -136.970405655805    -136.970405655805    -136.868352525758    -136.818802155507   0.0000   0.0000   0.0003   0.2179
   1277    0.002316223765099    0.0  906.37    -136.971986122914    -136.971986122914    -136.868655509259    -136.818806210959   0.0000   0.0000   0.0003   0.2193
   1278    0.002333532234188    0.0  914.88    -136.973251292817    -136.973251292817    -136.868950480025    -136.818808633208   0.0000   0.0000   0.0003   0.2206
   1279    0.002341117594475    0.0  920.33    -136.974157422744    -136.974157422744    -136.869235104569    -136.818809527797   0.0000   0.0000   0.0003   0.2219
   1280    0.002338216160729    0.0  922.56    -136.974684131745    -136.974684131745    -136.869507907721    -136.818809053578   0.0000   0.0000   0.0003   0.2232
   1281    0.002325554889710    0.0  921.57    -136.974832198044    -136.974832198044    -136.869768830292    -136.818807338446   0.0000   0.0000   0.0003   0.2245
   1282    0.002304893662194    0.0  917.51    -136.974620588688    -136.974620588688    -136.870019265622    -136.818804926636   0.0000   0.0000   0.0003   0.2258
   1283    0.002278093850829    0.0  910.67    -136.974081301063    -136.974081301063    -136.870260156627    -136.818801766712   0.0000   0.0000   0.0003   0.2271
   1284    0.002247554256954    0.0  901.40    -136.973257526891    -136.973257526891    -136.870493431251    -136.818798177713   0.0000   0.0000   0.0003   0.2284
   1285    0.002215231892611    0.0  890.13    -136.972199723331    -136.972199723331    -136.870720775005    -136.818794574339   0.0000   0.0000   0.0003   0.2297
   1286    0.002180887110965    0.0  877.33    -136.970961050406    -136.970961050406    -136.870941315466    -136.818790885762   0.0000   0.0000   0.0003   0.2310
   1287    0.002142813721628    0.0  863.49    -136.969596001441    -136.969596001441    -136.871153080889    -136.818787270175   0.0000   0.0000   0.0003   0.2323
   1288    0.002100138666779    0.0  849.12    -136.968158529349    -136.968158529349    -136.871354946574    -136.818783756604   0.0000   0.0000   0.0003   0.2335
   1289    0.002054724548968    0.0  834.63    -136.966700980473    -136.966700980473    -136.871548897584    -136.818780610200   0.0000   0.0000   0.0003   0.2348
   1290    0.002010207882711    0.0  820.43    -136.965271977201    -136.965271977201    -136.871738571684    -136.818777848089   0.0000   0.0000   0.0003   0.2361
   1291    0.001969424912634    0.0  806.89    -136.963915958729    -136.963915958729    -136.871926671190    -136.818775235617   0.0000   0.0000   0.0002   0.2373
   1292    0.001932818394686    0.0  794.35    -136.962674312329    -136.962674312329    -136.872113993842    -136.818772916080   0.0000   0.0000   0.0002   0.2385
   1293    0.001898655995160    0.0  783.17    -136.961584240301    -136.961584240301    -136.872299239055    -136.818771003293   0.0000   0.0000   0.0002   0.2398
   1294    0.001865577824888    0.0  773.61    -136.960677568310    -136.960677568310    -136.872481442962    -136.818769479878   0.0000   0.0000   0.0002   0.2410
   1295    0.001835018381112    0.0  765.91    -136.959980508266    -136.959980508266    -136.872662455821    -136.818768271503   0.0000   0.0000   0.0002   0.2422
   1296    0.001810119279622    0.0  760.21    -136.959513619696    -136.959513619696    -136.872846156677    -136.818767569923   0.0000   0.0000   0.0002   0.2434
   1297    0.001792163956299    0.0  756.60    -136.959290218575    -136.959290218575    -136.873034428204    -136.818767390025   0.0000   0.0000   0.0002   0.2446
   1298    0.001779674042501    0.0  755.14    -136.959315882632    -136.959315882632    -136.873226327194    -136.818767656980   0.0000   0.0000   0.0002   0.2458
   1299    0.001770774076982    0.0  755.82    -136.959588526620    -136.959588526620    -136.873420749575    -136.818768521684   0.0000   0.0000   0.0002   0.2470

 * Physical Quantities at step:  1300

   from rhoofr: total integrated electronic density
   in g-space =     64.000000   in r-space =    64.000000


                total energy =     -136.96009730229 Hartree a.u.
              kinetic energy =       97.61962 Hartree a.u.
        electrostatic energy =     -185.32179 Hartree a.u.
                         esr =        0.01271 Hartree a.u.
                       eself =      242.55691 Hartree a.u.
      pseudopotential energy =       -9.34985 Hartree a.u.
  n-l pseudopotential energy =       -6.25264 Hartree a.u.
 exchange-correlation energy =      -33.65544 Hartree a.u.
           average potential =        0.00000 Hartree a.u.



   Eigenvalues (eV), kp =   1 , spin =  1

  -24.20  -23.59  -22.95  -22.69  -22.55  -22.25  -21.79  -21.77  -12.22  -11.02
  -10.67  -10.45  -10.33  -10.15  -10.05   -9.58   -8.50   -8.18   -7.55   -7.46
   -7.02   -6.30   -6.18   -5.86   -5.54   -5.11   -5.00   -4.75   -4.70   -4.57
   -4.54   -4.19
 
 
   CELL_PARAMETERS
   13.00000000    0.00000000    0.00000000
    0.00000000   13.00000000    0.00000000
    0.00000000    0.00000000   13.00000000

   System Density [g/cm^3] :              0.7351364820


   System Volume [A.U.^3] :           2197.0000000000


   Center of mass square displacement (a.u.):   0.000000

   ATOMIC_POSITIONS
   O       0.77241620329474E+01     0.32177983940174E+01     0.34980272193985E+01
   H       0.60495900381544E+01     0.37823393815568E+01     0.28445637089783E+01
   H       0.74925898972300E+01     0.14593840745097E+01     0.39012813682419E+01
   O       0.36984982564300E+01    -0.57695551713882E+01     0.21074050336990E+01
   H       0.49418990073685E+01    -0.44755676589468E+01     0.25512022626295E+01
   H       0.16050252320050E+01    -0.54807852453813E+01     0.23243072362491E+01
   O      -0.55667321658911E+01    -0.20400012116532E+01     0.33409294726036E+01
   H      -0.41631633283199E+01    -0.31534942260657E+01     0.24579776384569E+01
   H      -0.55836093406096E+01    -0.29074247693484E+01     0.50227839695117E+01
   O      -0.13385785373362E+01     0.60213490219093E+01     0.20950193810181E+01
   H      -0.25402551040358E+01     0.49868198882216E+01     0.30572619112365E+01
   H      -0.32324858676541E+00     0.48690450166764E+01     0.11226999628666E+01
   O       0.11578965500622E+01    -0.51429449251845E+01    -0.34696101052329E+01
   H       0.19297338679864E+01    -0.51106177511832E+01    -0.16296573981038E+01
   H       0.20676651781599E+01    -0.44310198718643E+01    -0.47504398374819E+01
   O      -0.52226908517329E+01    -0.37061282673992E+01    -0.50033613214312E+01
   H      -0.48366692207031E+01    -0.26496681506780E+01    -0.37090504418631E+01
   H      -0.48705445242592E+01    -0.56166676040305E+01    -0.40767821503090E+01
   O      -0.44657975000073E+01     0.52750305675610E+01    -0.19347557708928E+01
   H      -0.34149068732787E+01     0.62141621462051E+01    -0.49563421621215E+00
   H      -0.52852940635035E+01     0.36161458264786E+01    -0.10913883982628E+01
   O       0.40854865774711E+01     0.23692668429117E+01    -0.34731838102116E+01
   H       0.27463270387557E+01     0.14905731307431E+01    -0.29737745993216E+01
   H       0.30380111032322E+01     0.38379257165017E+01    -0.38122801804868E+01
 
   ATOMIC_VELOCITIES
   O       0.36514626892457E-03     0.42745864614460E-04    -0.66458688617299E-04
   H       0.21748636896146E-02     0.55983653082502E-03     0.23341153423131E-03
   H      -0.35848783700690E-03    -0.84654181460070E-03     0.22391736457177E-02
   O       0.17030405039603E-03    -0.73590314601490E-04     0.22161839421705E-04
   H      -0.25845728437844E-02    -0.12679934927682E-02     0.33568916393145E-03
   H      -0.14196572594385E-02    -0.48588382113564E-03     0.21266883996027E-02
   O       0.84679304285223E-04     0.17150800756891E-03    -0.51837517253622E-04
   H      -0.17572086758892E-02    -0.13965017269946E-02    -0.30681710508209E-03
   H       0.11455702103659E-03     0.28719705615243E-03    -0.10037237142152E-02
   O       0.21928664849633E-03    -0.59791151902183E-04    -0.63768888173096E-04
   H       0.27371877967635E-03     0.72147297618199E-03     0.33251076021070E-03
   H      -0.55699598779562E-03     0.13999923394320E-02     0.24787541820383E-02
   O      -0.34814408188655E-03     0.44948038192327E-05     0.16263582469411E-03
   H       0.10490809538247E-02    -0.75874245654571E-03    -0.28757596583383E-02
   H       0.16158920487538E-02    -0.21052007096272E-03    -0.33926818021258E-03
   O      -0.18748813026451E-03     0.51633860107321E-03    -0.10280315932021E-03
   H      -0.25289389474804E-03     0.18221596648277E-03    -0.14814073498256E-02
   H      -0.10383873263501E-02    -0.13887425538786E-02    -0.30021411490949E-03
   O      -0.63417121711817E-05     0.39860304043965E-04     0.71559791278347E-04
   H      -0.15568724290815E-02    -0.51994579960070E-03    -0.23378764928326E-02
   H      -0.12457136376563E-02    -0.14043414648858E-02    -0.31127644368157E-03
   O       0.14299146541529E-03    -0.37066566173728E-03     0.11424218572962E-03
   H       0.88100849202571E-04    -0.95560669226999E-03    -0.10469037937172E-02
   H      -0.15371299798978E-02     0.17836712056789E-02     0.89606847340269E-03
 
   Forces acting on atoms (au):
   O      -0.19788148604005E-01     0.17733647505605E-01    -0.10934490700355E-01
   H       0.18041708005149E-01     0.98222997811190E-03     0.10772419180696E-01
   H       0.28522655577641E-02    -0.15220051228082E-01     0.30751656867686E-03
   O      -0.66303844063239E-01    -0.15703312704170E-01    -0.98443149127327E-02
   H      -0.15775912915325E-01     0.15825987581606E-01     0.22378288325841E-02
   H       0.78777928920180E-01     0.12918942609673E-02     0.85486539205758E-02
   O       0.37255355829490E-01    -0.46119353751874E-01    -0.25683954606600E-01
   H      -0.38705195285699E-01     0.38471722546534E-01     0.23813737206892E-01
   H       0.31741176723033E-02     0.92858903174307E-02     0.75993363971765E-02
   O       0.78384510567411E-02     0.16880631813985E-01    -0.40115044354356E-02
   H      -0.80220082445859E-02    -0.85831765571777E-02     0.46273632758881E-02
   H      -0.12437057453198E-03    -0.89826168208182E-02    -0.24738973665395E-02
   O      -0.34970900822954E-01    -0.38233985041531E-01     0.94533674640539E-01
   H      -0.27214357221573E-02     0.81381064725068E-02    -0.63224332440954E-01
   H       0.47108918465561E-01     0.29348636007025E-01    -0.31755125242728E-01
   O      -0.77355816474675E-02    -0.10101876266783E+00    -0.21960903064395E-01
   H       0.15241115746221E-01     0.48482969399703E-01     0.48557604628023E-01
   H      -0.14420307341338E-01     0.49062388923731E-01    -0.23279547878397E-01
   O       0.61519565362123E-02    -0.18894646958710E-01     0.49748018119911E-01
   H      -0.27672846866141E-01    -0.34986859671496E-01    -0.34303623917367E-01
   H       0.23346127382535E-01     0.60037290225403E-01    -0.28425505512705E-01
   O       0.51981671151554E-01     0.53844899679726E-01    -0.25938836021383E-01
   H      -0.72671330116073E-01    -0.79256571426050E-01     0.36044713637532E-01
   H       0.15401072246049E-01     0.22774232607203E-01    -0.84209581903901E-02
 


   Partial temperatures (for each ionic specie) 
   Species  Temp (K)   Mean Square Displacement (a.u.)
        1   3.48E+02     5.0143E+00
        2   9.64E+02     8.3569E+00
 
  nfi     ekinc              temph  tempp     etot                 enthal               econs                econt              vnhh    xnhh0   vnhp    xnhp0
   1300    0.001764978818893    0.0  758.56    -136.960097302285    -136.960097302285    -136.873617827671    -136.818769991220   0.0000   0.0000   0.0002   0.2481
   1301    0.001762770743877    0.0  763.16    -136.960822533084    -136.960822533084    -136.873818612653    -136.818772056425   0.0000   0.0000   0.0002   0.2493
   1302    0.001764417492637    0.0  769.38    -136.961736494697    -136.961736494697    -136.874023653124    -136.818774472314   0.0000   0.0000   0.0002   0.2504
   1303    0.001769669297631    0.0  776.91    -136.962805535776    -136.962805535776    -136.874233231883    -136.818777311765   0.0000   0.0000   0.0002   0.2516
   1304    0.001777795327671    0.0  785.44    -136.963990621772    -136.963990621772    -136.874446760271    -136.818780334421   0.0000   0.0000   0.0002   0.2527
   1305    0.001788049213299    0.0  794.58    -136.965249748515    -136.965249748515    -136.874663613819    -136.818783364913   0.0000   0.0000   0.0002   0.2539
   1306    0.001799550314680    0.0  803.97    -136.966540208715    -136.966540208715    -136.874883088824    -136.818786372391   0.0000   0.0000   0.0002   0.2550
   1307    0.001811137058669    0.0  813.26    -136.967820266535    -136.967820266535    -136.875103850730    -136.818789065264   0.0000   0.0000   0.0002   0.2561
   1308    0.001821921015581    0.0  822.13    -136.969052203993    -136.969052203993    -136.875325109212    -136.818791507930   0.0000   0.0000   0.0002   0.2572
   1309    0.001831019656322    0.0  830.29    -136.970203373644    -136.970203373644    -136.875545705779    -136.818793467541   0.0000   0.0000   0.0002   0.2583
   1310    0.001837521811276    0.0  837.54    -136.971248404324    -136.971248404324    -136.875764499809    -136.818794822581   0.0000   0.0000   0.0002   0.2594
   1311    0.001840903789666    0.0  843.73    -136.972170444531    -136.972170444531    -136.875980838886    -136.818795602211   0.0000   0.0000   0.0002   0.2605
   1312    0.001841298372110    0.0  848.79    -136.972961111331    -136.972961111331    -136.876194675737    -136.818795818448   0.0000   0.0000   0.0002   0.2616
   1313    0.001839622771193    0.0  852.72    -136.973620766019    -136.973620766019    -136.876406628673    -136.818795382391   0.0000   0.0000   0.0002   0.2628
   1314    0.001837103200768    0.0  855.59    -136.974159450390    -136.974159450390    -136.876617797190    -136.818794376921   0.0000   0.0000   0.0002   0.2639
   1315    0.001834160761759    0.0  857.57    -136.974596344652    -136.974596344652    -136.876828569855    -136.818792957633   0.0000   0.0000   0.0002   0.2650
   1316    0.001830157143048    0.0  858.91    -136.974958033612    -136.974958033612    -136.877038129585    -136.818791091076   0.0000   0.0000   0.0002   0.2661
   1317    0.001824915694484    0.0  859.89    -136.975277707838    -136.975277707838    -136.877246105451    -136.818788667380   0.0000   0.0000   0.0002   0.2672
   1318    0.001819921765085    0.0  860.84    -136.975594966972    -136.975594966972    -136.877454154615    -136.818785867752   0.0000   0.0000   0.0002   0.2683
   1319    0.001817223873254    0.0  862.15    -136.975953884876    -136.975953884876    -136.877664751555    -136.818783040682   0.0000   0.0000   0.0002   0.2694
   1320    0.001817866313620    0.0  864.18    -136.976399760951    -136.976399760951    -136.877879255221    -136.818780326451   0.0000   0.0000   0.0002   0.2705
   1321    0.001822293160083    0.0  867.31    -136.976976552940    -136.976976552940    -136.878098501319    -136.818777839949   0.0000   0.0000   0.0002   0.2716
   1322    0.001831427370449    0.0  871.89    -136.977724022985    -136.977724022985    -136.878324063874    -136.818775855505   0.0000   0.0000   0.0002   0.2727
   1323    0.001846590998626    0.0  878.17    -136.978673949270    -136.978673949270    -136.878557931055    -136.818774573291   0.0000   0.0000   0.0002   0.2738
   1324    0.001868636490518    0.0  886.32    -136.979846717755    -136.979846717755    -136.878801833078    -136.818774333864   0.0000   0.0000   0.0002   0.2749
   1325    0.001897495581130    0.0  896.37    -136.981247488065    -136.981247488065    -136.879056398740    -136.818775250596   0.0000   0.0000   0.0002   0.2760
   1326    0.001932918654028    0.0  908.22    -136.982864031664    -136.982864031664    -136.879322036870    -136.818777384174   0.0000   0.0000   0.0002   0.2771
   1327    0.001974608535190    0.0  921.59    -136.984665432296    -136.984665432296    -136.879599205384    -136.818780916905   0.0000   0.0000   0.0002   0.2782
   1328    0.002021204279107    0.0  936.05    -136.986601081023    -136.986601081023    -136.879886831702    -136.818785631639   0.0000   0.0000   0.0002   0.2793
   1329    0.002070428319276    0.0  951.01    -136.988602960433    -136.988602960433    -136.880182765430    -136.818791259671   0.0000   0.0000   0.0002   0.2804
   1330    0.002120100579672    0.0  965.78    -136.990589265380    -136.990589265380    -136.880484753513    -136.818797482324   0.0000   0.0000   0.0002   0.2816
   1331    0.002168454768003    0.0  979.59    -136.992469069352    -136.992469069352    -136.880790749895    -136.818803960418   0.0000   0.0000   0.0002   0.2827
   1332    0.002213311954696    0.0  991.62    -136.994147800499    -136.994147800499    -136.881098163103    -136.818810435557   0.0000   0.0000   0.0002   0.2838
   1333    0.002251446233335    0.0 1001.09    -136.995532625949    -136.995532625949    -136.881402918073    -136.818816441568   0.0000   0.0000   0.0002   0.2850
   1334    0.002279931198738    0.0 1007.30    -136.996538977849    -136.996538977849    -136.881700958271    -136.818821463264   0.0000   0.0000   0.0002   0.2861
   1335    0.002297515741794    0.0 1009.66    -136.997096942371    -136.997096942371    -136.881989910372    -136.818825216413   0.0000   0.0000   0.0002   0.2873
   1336    0.002303848283798    0.0 1007.74    -136.997155886705    -136.997155886705    -136.882268063351    -136.818827379029   0.0000   0.0000   0.0002   0.2885
   1337    0.002298224252833    0.0 1001.32    -136.996688613072    -136.996688613072    -136.882533399052    -136.818827833800   0.0000   0.0000   0.0002   0.2896
   1338    0.002279655058157    0.0  990.39    -136.995693429856    -136.995693429856    -136.882783623634    -136.818826575377   0.0000   0.0000   0.0002   0.2908
   1339    0.002248210319548    0.0  975.19    -136.994194502632    -136.994194502632    -136.883017493135    -136.818823630524   0.0000   0.0000   0.0002   0.2920
   1340    0.002205655780868    0.0  956.14    -136.992241136242    -136.992241136242    -136.883235675659    -136.818819215950   0.0000   0.0000   0.0002   0.2932
   1341    0.002154270357514    0.0  933.87    -136.989905115447    -136.989905115447    -136.883439439116    -136.818813540899   0.0000   0.0000   0.0002   0.2944
   1342    0.002096134847690    0.0  909.14    -136.987277124635    -136.987277124635    -136.883630048253    -136.818806848995   0.0000   0.0000   0.0002   0.2957
   1343    0.002033851053635    0.0  882.87    -136.984461952501    -136.984461952501    -136.883809790148    -136.818799667236   0.0000   0.0000   0.0002   0.2969
   1344    0.001970731762629    0.0  856.01    -136.981571381235    -136.981571381235    -136.883981889710    -136.818792490436   0.0000   0.0000   0.0002   0.2981
   1345    0.001910096689753    0.0  829.50    -136.978717250349    -136.978717250349    -136.884149666798    -136.818785620010   0.0000   0.0000   0.0002   0.2993
   1346    0.001854537419429    0.0  804.26    -136.976005798348    -136.976005798348    -136.884316143480    -136.818779501675   0.0000   0.0000   0.0002   0.3006
   1347    0.001805572548688    0.0  781.09    -136.973531363819    -136.973531363819    -136.884483453404    -136.818774492864   0.0000   0.0000   0.0002   0.3018
   1348    0.001764356262822    0.0  760.65    -136.971371078757    -136.971371078757    -136.884653466207    -136.818770810140   0.0000   0.0000   0.0002   0.3030
   1349    0.001732543820675    0.0  743.41    -136.969581379184    -136.969581379184    -136.884828726833    -136.818768650748   0.0000   0.0000   0.0002   0.3042
   1350    0.001711786126396    0.0  729.65    -136.968195567530    -136.968195567530    -136.885011819010    -136.818768119185   0.0000   0.0000   0.0002   0.3054
   1351    0.001702549992010    0.0  719.43    -136.967222855786    -136.967222855786    -136.885203919088    -136.818769021129   0.0000   0.0000   0.0002   0.3067
   1352    0.001703845460308    0.0  712.65    -136.966650132239    -136.966650132239    -136.885404746721    -136.818771144376   0.0000   0.0000   0.0002   0.3079
   1353    0.001713501121629    0.0  709.02    -136.966444644921    -136.966444644921    -136.885612963140    -136.818774433718   0.0000   0.0000   0.0002   0.3091
   1354    0.001728743471597    0.0  708.13    -136.966556431627    -136.966556431627    -136.885826293667    -136.818778579521   0.0000   0.0000   0.0002   0.3103
   1355    0.001747633376282    0.0  709.44    -136.966922647573    -136.966922647573    -136.886043083203    -136.818783175194   0.0000   0.0000   0.0002   0.3115
   1356    0.001769785317804    0.0  712.33    -136.967472768592    -136.967472768592    -136.886263150948    -136.818787882013   0.0000   0.0000   0.0002   0.3127
   1357    0.001795086291142    0.0  716.17    -136.968133390402    -136.968133390402    -136.886486540120    -136.818792476705   0.0000   0.0000   0.0002   0.3138
   1358    0.001821904065916    0.0  720.32    -136.968832240448    -136.968832240448    -136.886711667057    -136.818796794948   0.0000   0.0000   0.0002   0.3150
   1359    0.001846944166142    0.0  724.23    -136.969501500253    -136.969501500253    -136.886935140992    -136.818800685926   0.0000   0.0000   0.0002   0.3162
   1360    0.001867033194124    0.0  727.40    -136.970080663040    -136.970080663040    -136.887153387675    -136.818803839009   0.0000   0.0000   0.0002   0.3174
   1361    0.001880850768189    0.0  729.40    -136.970519662195    -136.970519662195    -136.887364736621    -136.818806122894   0.0000   0.0000   0.0002   0.3186
   1362    0.001888551736319    0.0  729.89    -136.970780594668    -136.970780594668    -136.887569077414    -136.818807599798   0.0000   0.0000   0.0002   0.3197
   1363    0.001890142615699    0.0  728.67    -136.970837933754    -136.970837933754    -136.887766065291    -136.818808329526   0.0000   0.0000   0.0002   0.3209
   1364    0.001885101409424    0.0  725.61    -136.970678452052    -136.970678452052    -136.887954668021    -136.818808267951   0.0000   0.0000   0.0002   0.3221
   1365    0.001873468557126    0.0  720.73    -136.970301441181    -136.970301441181    -136.888134406404    -136.818807387848   0.0000   0.0000   0.0002   0.3232
   1366    0.001856340459248    0.0  714.11    -136.969718482092    -136.969718482092    -136.888305958944    -136.818805762590   0.0000   0.0000   0.0002   0.3244
   1367    0.001834952634000    0.0  705.95    -136.968952476892    -136.968952476892    -136.888470179117    -136.818803472940   0.0000   0.0000   0.0002   0.3256
   1368    0.001809667570679    0.0  696.54    -136.968036515012    -136.968036515012    -136.888627183612    -136.818800679690   0.0000   0.0000   0.0002   0.3267
   1369    0.001780130827220    0.0  686.25    -136.967012197030    -136.967012197030    -136.888776363056    -136.818797452320   0.0000   0.0000   0.0002   0.3279
   1370    0.001746481964357    0.0  675.50    -136.965928115205    -136.965928115205    -136.888917714265    -136.818793869507   0.0000   0.0000   0.0002   0.3290
   1371    0.001710114857960    0.0  664.75    -136.964837955976    -136.964837955976    -136.889052675587    -136.818790080090   0.0000   0.0000   0.0002   0.3302
   1372    0.001673163742857    0.0  654.48    -136.963797927707    -136.963797927707    -136.889183656995    -136.818786339158   0.0000   0.0000   0.0002   0.3313
   1373    0.001637573252861    0.0  645.15    -136.962863533581    -136.962863533581    -136.889312965208    -136.818782860748   0.0000   0.0000   0.0002   0.3325
   1374    0.001605034616044    0.0  637.20    -136.962086663473    -136.962086663473    -136.889442693763    -136.818779775657   0.0000   0.0000   0.0002   0.3336
   1375    0.001577253848175    0.0  631.00    -136.961513019077    -136.961513019077    -136.889575236356    -136.818777387803   0.0000   0.0000   0.0002   0.3347
   1376    0.001555194348955    0.0  626.87    -136.961178334912    -136.961178334912    -136.889712264195    -136.818775927131   0.0000   0.0000   0.0002   0.3358
   1377    0.001538650736941    0.0  624.98    -136.961105355865    -136.961105355865    -136.889854033114    -136.818775306832   0.0000   0.0000   0.0002   0.3369
   1378    0.001527395970085    0.0  625.43    -136.961303458216    -136.961303458216    -136.890000906251    -136.818775527340   0.0000   0.0000   0.0002   0.3380
   1379    0.001521889444230    0.0  628.17    -136.961768454120    -136.961768454120    -136.890154077872    -136.818776723180   0.0000   0.0000   0.0002   0.3392
   1380    0.001522512236614    0.0  633.02    -136.962482081371    -136.962482081371    -136.890314420548    -136.818778805838   0.0000   0.0000   0.0002   0.3402
   1381    0.001528831035757    0.0  639.72    -136.963413284132    -136.963413284132    -136.890481822263    -136.818781564582   0.0000   0.0000   0.0002   0.3413
   1382    0.001539664388589    0.0  647.91    -136.964520811848    -136.964520811848    -136.890655304124    -136.818784740498   0.0000   0.0000   0.0002   0.3424
   1383    0.001553738009922    0.0  657.19    -136.965756644128    -136.965756644128    -136.890833743969    -136.818788111776   0.0000   0.0000   0.0002   0.3435
   1384    0.001569983419753    0.0  667.10    -136.967069387341    -136.967069387341    -136.891016252328    -136.818791582192   0.0000   0.0000   0.0002   0.3446
   1385    0.001587260168242    0.0  677.21    -136.968406876002    -136.968406876002    -136.891201613848    -136.818794905372   0.0000   0.0000   0.0002   0.3457
   1386    0.001604225934352    0.0  687.08    -136.969719143951    -136.969719143951    -136.891388451890    -136.818797978620   0.0000   0.0000   0.0002   0.3467
   1387    0.001619388853206    0.0  696.33    -136.970960374281    -136.970960374281    -136.891575009573    -136.818800566294   0.0000   0.0000   0.0002   0.3478
   1388    0.001631843498777    0.0  704.63    -136.972091452103    -136.972091452103    -136.891760142031    -136.818802547240   0.0000   0.0000   0.0002   0.3489
   1389    0.001641505106741    0.0  711.70    -136.973081471685    -136.973081471685    -136.891943837016    -136.818804189876   0.0000   0.0000   0.0002   0.3499
   1390    0.001648101857865    0.0  717.34    -136.973906483845    -136.973906483845    -136.892125504748    -136.818805436921   0.0000   0.0000   0.0002   0.3510
   1391    0.001651215529841    0.0  721.42    -136.974549854900    -136.974549854900    -136.892304190358    -136.818806063427   0.0000   0.0000   0.0002   0.3521
   1392    0.001650943855422    0.0  723.86    -136.975003480514    -136.975003480514    -136.892479786740    -136.818806212863   0.0000   0.0000   0.0002   0.3531
   1393    0.001647334416270    0.0  724.66    -136.975266615491    -136.975266615491    -136.892652092800    -136.818806006622   0.0000   0.0000   0.0002   0.3542
   1394    0.001640092737375    0.0  723.87    -136.975344881960    -136.975344881960    -136.892820306750    -136.818805314369   0.0000   0.0000   0.0002   0.3553
   1395    0.001629351618945    0.0  721.61    -136.975250982938    -136.975250982938    -136.892984217480    -136.818804161470   0.0000   0.0000   0.0002   0.3563
   1396    0.001615845576915    0.0  718.04    -136.975004503458    -136.975004503458    -136.893144306304    -136.818802641782   0.0000   0.0000   0.0002   0.3574
   1397    0.001600600306366    0.0  713.39    -136.974631160668    -136.974631160668    -136.893301278563    -136.818800745247   0.0000   0.0000   0.0002   0.3585
   1398    0.001584765947946    0.0  707.92    -136.974162570790    -136.974162570790    -136.893456092803    -136.818798539325   0.0000   0.0000   0.0002   0.3595
   1399    0.001569067227203    0.0  701.95    -136.973635578120    -136.973635578120    -136.893609250813    -136.818795994277   0.0000   0.0000   0.0002   0.3606

 * Physical Quantities at step:  1400

   from rhoofr: total integrated electronic density
   in g-space =     64.000000   in r-space =    64.000000


                total energy =     -136.97309196383 Hartree a.u.
              kinetic energy =       97.72029 Hartree a.u.
        electrostatic energy =     -185.36880 Hartree a.u.
                         esr =        0.01310 Hartree a.u.
                       eself =      242.55691 Hartree a.u.
      pseudopotential energy =       -9.39969 Hartree a.u.
  n-l pseudopotential energy =       -6.23464 Hartree a.u.
 exchange-correlation energy =      -33.69026 Hartree a.u.
           average potential =        0.00000 Hartree a.u.



   Eigenvalues (eV), kp =   1 , spin =  1

  -23.64  -23.31  -23.01  -22.88  -22.82  -22.69  -22.41  -21.88  -11.30  -11.03
  -10.90  -10.55  -10.53  -10.30   -9.93   -9.88   -8.09   -7.89   -7.62   -7.39
   -7.03   -6.65   -6.53   -5.79   -5.31   -5.15   -5.04   -4.99   -4.85   -4.79
   -4.63   -4.47
 
 
   CELL_PARAMETERS
   13.00000000    0.00000000    0.00000000
    0.00000000   13.00000000    0.00000000
    0.00000000    0.00000000   13.00000000

   System Density [g/cm^3] :              0.7351364820


   System Volume [A.U.^3] :           2197.0000000000


   Center of mass square displacement (a.u.):   0.000000

   ATOMIC_POSITIONS
   O       0.79249832907711E+01     0.32182315777415E+01     0.34884353193742E+01
   H       0.64688622859317E+01     0.41447846089714E+01     0.31473541913987E+01
   H       0.73170414972298E+01     0.15989696418572E+01     0.43668931983293E+01
   O       0.36720461560116E+01    -0.58352997934901E+01     0.21008817331267E+01
   H       0.43048592864770E+01    -0.43091100661774E+01     0.26020293362880E+01
   H       0.21226341045747E+01    -0.59238961790764E+01     0.34820768697181E+01
   O      -0.55341047579778E+01    -0.20109817324968E+01     0.33015437390621E+01
   H      -0.49219705368096E+01    -0.32740726599202E+01     0.22429346584528E+01
   H      -0.53585795262745E+01    -0.25373696451272E+01     0.50605625537507E+01
   O      -0.12588382607977E+01     0.60556909297437E+01     0.21102312182758E+01
   H      -0.24969594116113E+01     0.50647216535118E+01     0.30972952103045E+01
   H      -0.20090637919627E+00     0.47397459616118E+01     0.16398498589403E+01
   O       0.10633720570103E+01    -0.51406501945604E+01    -0.34234591993894E+01
   H       0.22712108333220E+01    -0.53944727746867E+01    -0.22082720831779E+01
   H       0.22434997996459E+01    -0.46011752951219E+01    -0.48827117570685E+01
   O      -0.53428609678393E+01    -0.35515543711726E+01    -0.50795883651834E+01
   H      -0.47268335257939E+01    -0.22921499443649E+01    -0.37983250892888E+01
   H      -0.53859056231865E+01    -0.54400572608180E+01    -0.40548320772539E+01
   O      -0.45133355111626E+01     0.52675606711666E+01    -0.19958468647787E+01
   H      -0.35609461514056E+01     0.56900279930735E+01    -0.56461792739632E+00
   H      -0.56716590715807E+01     0.38342145511571E+01    -0.13324016949696E+01
   O       0.40803475441650E+01     0.22472333770769E+01    -0.34266550786273E+01
   H       0.29150800125169E+01     0.71363720740842E+00    -0.33631301775838E+01
   H       0.32263082898366E+01     0.40138960026021E+01    -0.33434433885488E+01
 
   ATOMIC_VELOCITIES
   O       0.40331969184716E-03     0.42732148317431E-04    -0.42394035335791E-05
   H       0.26461418188517E-05     0.69586609652537E-03     0.12808946872089E-02
   H      -0.40674009642806E-03     0.35714730846867E-03    -0.12641495341162E-03
   O      -0.15962226036761E-03    -0.45757238798388E-04     0.20938252005560E-03
   H       0.43163959231130E-03     0.18666687573883E-03    -0.13709550523152E-02
   H       0.18910020274010E-02    -0.19665947955479E-02    -0.74778736661038E-03
   O       0.95145086128345E-05    -0.41819214950628E-04    -0.10843805442221E-03
   H      -0.12518100361856E-02     0.12912771908704E-02     0.87468939915244E-03
   H       0.10577168267335E-02     0.28959726286630E-03    -0.55733452393720E-03
   O       0.67699500438813E-04     0.13359427141124E-03     0.10665935744275E-03
[...]
   6048    0.001790266867610    0.0  692.72    -137.001785240739    -137.001785240739    -136.922811029480    -136.818797528987   0.0000   0.0000  -0.0001   0.5758
   6049    0.001795804884157    0.0  697.57    -137.002258977945    -137.002258977945    -136.922732050676    -136.818798398421   0.0000   0.0000  -0.0001   0.5753
   6050    0.001804241631152    0.0  703.88    -137.002902321958    -137.002902321958    -136.922656298685    -136.818799575433   0.0000   0.0000  -0.0001   0.5748
   6051    0.001814702901107    0.0  711.51    -137.003698585523    -137.003698585523    -136.922582773571    -136.818801042382   0.0000   0.0000  -0.0001   0.5742
   6052    0.001827487854489    0.0  720.27    -137.004626376117    -137.004626376117    -136.922511704635    -136.818802801625   0.0000   0.0000  -0.0001   0.5737
   6053    0.001843028565327    0.0  729.93    -137.005659821632    -137.005659821632    -136.922443555989    -136.818804917211   0.0000   0.0000  -0.0001   0.5732
   6054    0.001860760215212    0.0  740.24    -137.006768722146    -137.006768722146    -136.922377609249    -136.818807225210   0.0000   0.0000  -0.0001   0.5727
   6055    0.001879511787494    0.0  750.91    -137.007920010891    -137.007920010891    -136.922312690554    -136.818809669765   0.0000   0.0000  -0.0001   0.5722
   6056    0.001898436755985    0.0  761.64    -137.009078667415    -137.009078667415    -136.922247971560    -136.818812174257   0.0000   0.0000  -0.0001   0.5717
   6057    0.001917212842681    0.0  772.12    -137.010208723793    -137.010208723793    -136.922183174043    -136.818814648268   0.0000   0.0000  -0.0001   0.5712
   6058    0.001935438923592    0.0  782.04    -137.011274738788    -137.011274738788    -136.922117918263    -136.818816943330   0.0000   0.0000  -0.0001   0.5707
   6059    0.001951985060297    0.0  791.13    -137.012243708907    -137.012243708907    -136.922051221155    -136.818819008047   0.0000   0.0000  -0.0001   0.5702
   6060    0.001965149608969    0.0  799.13    -137.013086312455    -137.013086312455    -136.921981558628    -136.818820802009   0.0000   0.0000  -0.0001   0.5698
   6061    0.001973782434530    0.0  805.84    -137.013777815684    -137.013777815684    -136.921907911180    -136.818822227109   0.0000   0.0000  -0.0001   0.5693
   6062    0.001978440289381    0.0  811.09    -137.014299267401    -137.014299267401    -136.921830924429    -136.818823141072   0.0000   0.0000  -0.0001   0.5689
   6063    0.001981103144738    0.0  814.75    -137.014638909702    -137.014638909702    -136.921752806505    -136.818823546921   0.0000   0.0000  -0.0001   0.5684
   6064    0.001983187436092    0.0  816.78    -137.014792604446    -137.014792604446    -136.921675205868    -136.818823466701   0.0000   0.0000  -0.0001   0.5680
   6065    0.001983912253989    0.0  817.21    -137.014763820562    -137.014763820562    -136.921597525024    -136.818822898411   0.0000   0.0000  -0.0001   0.5676
   6066    0.001980791017178    0.0  816.15    -137.014563373805    -137.014563373805    -136.921517535099    -136.818821946696   0.0000   0.0000  -0.0001   0.5672
   6067    0.001971870812020    0.0  813.78    -137.014208243538    -137.014208243538    -136.921433421449    -136.818820633370   0.0000   0.0000  -0.0001   0.5668
   6068    0.001958032838049    0.0  810.26    -137.013720641061    -137.013720641061    -136.921346235862    -136.818819049423   0.0000   0.0000  -0.0001   0.5664
   6069    0.001942661750381    0.0  805.81    -137.013126474717    -137.013126474717    -136.921259603505    -136.818817390388   0.0000   0.0000  -0.0001   0.5660
   6070    0.001929005569116    0.0  800.63    -137.012453255972    -137.012453255972    -136.921176747367    -136.818815618185   0.0000   0.0000  -0.0001   0.5656
   6071    0.001918211073187    0.0  794.97    -137.011729195588    -137.011729195588    -136.921099035059    -136.818813970069   0.0000   0.0000  -0.0001   0.5653
   6072    0.001909188499143    0.0  789.05    -137.010980747452    -137.010980747452    -136.921025472972    -136.818812584860   0.0000   0.0000  -0.0001   0.5649
   6073    0.001900608554215    0.0  783.09    -137.010230757592    -137.010230757592    -136.920954675705    -136.818811470154   0.0000   0.0000  -0.0001   0.5646
   6074    0.001892965467212    0.0  777.25    -137.009497786393    -137.009497786393    -136.920887153895    -136.818810720199   0.0000   0.0000  -0.0001   0.5642
   6075    0.001888062447239    0.0  771.64    -137.008795215313    -137.008795215313    -136.920824659405    -136.818810368729   0.0000   0.0000  -0.0001   0.5639
   6076    0.001886935091257    0.0  766.31    -137.008130901056    -137.008130901056    -136.920768063194    -136.818810338160   0.0000   0.0000  -0.0001   0.5636
   6077    0.001888774676541    0.0  761.29    -137.007507769220    -137.007507769220    -136.920716346419    -136.818810504049   0.0000   0.0000  -0.0001   0.5633
   6078    0.001891720098990    0.0  756.61    -137.006924883309    -137.006924883309    -136.920667531355    -136.818810831816   0.0000   0.0000  -0.0001   0.5630
   6079    0.001894484575425    0.0  752.23    -137.006378365984    -137.006378365984    -136.920620146318    -136.818811213053   0.0000   0.0000  -0.0001   0.5627
   6080    0.001897375165003    0.0  748.11    -137.005863109614    -137.005863109614    -136.920574307897    -136.818811526808   0.0000   0.0000  -0.0001   0.5624
   6081    0.001901703936339    0.0  744.21    -137.005374822120    -137.005374822120    -136.920531158733    -136.818811666071   0.0000   0.0000  -0.0001   0.5621
   6082    0.001908124360118    0.0  740.50    -137.004911706052    -137.004911706052    -136.920491259851    -136.818811595281   0.0000   0.0000  -0.0001   0.5619
   6083    0.001915808933196    0.0  737.00    -137.004475275852    -137.004475275852    -136.920453639179    -136.818811223797   0.0000   0.0000  -0.0001   0.5616
   6084    0.001923455848942    0.0  733.77    -137.004070917758    -137.004070917758    -136.920416941335    -136.818810551285   0.0000   0.0000  -0.0001   0.5613
   6085    0.001930780426854    0.0  730.90    -137.003707648960    -137.003707648960    -136.920380862134    -136.818809611918   0.0000   0.0000  -0.0001   0.5611
   6086    0.001938806232960    0.0  728.48    -137.003397461912    -137.003397461912    -136.920346484442    -136.818808519197   0.0000   0.0000  -0.0000   0.5608
   6087    0.001948587515396    0.0  726.62    -137.003153913479    -137.003153913479    -136.920314991026    -136.818807455965   0.0000   0.0000  -0.0000   0.5606
   6088    0.001960199600741    0.0  725.44    -137.002990204790    -137.002990204790    -136.920286469463    -136.818806488145   0.0000   0.0000  -0.0000   0.5604
   6089    0.001973390028126    0.0  725.03    -137.002917688667    -137.002917688667    -136.920260807316    -136.818805807180   0.0000   0.0000  -0.0000   0.5601
   6090    0.001988335710307    0.0  725.45    -137.002943449185    -137.002943449185    -136.920238298808    -136.818805576838   0.0000   0.0000  -0.0000   0.5599
   6091    0.002005597084507    0.0  726.71    -137.003068419602    -137.003068419602    -136.920219300756    -136.818805631746   0.0000   0.0000  -0.0000   0.5597
   6092    0.002025592250732    0.0  728.77    -137.003287995319    -137.003287995319    -136.920204280326    -136.818806048206   0.0000   0.0000  -0.0000   0.5595
   6093    0.002047367775167    0.0  731.54    -137.003591614030    -137.003591614030    -136.920192430834    -136.818806987388   0.0000   0.0000  -0.0000   0.5593
   6094    0.002068739455045    0.0  734.89    -137.003962090056    -137.003962090056    -136.920181327983    -136.818808209698   0.0000   0.0000  -0.0000   0.5591
   6095    0.002088572949801    0.0  738.63    -137.004377565468    -137.004377565468    -136.920169733498    -136.818809597089   0.0000   0.0000  -0.0000   0.5589
   6096    0.002107682845573    0.0  742.55    -137.004813180705    -137.004813180705    -136.920158398891    -136.818811057851   0.0000   0.0000  -0.0000   0.5587
   6097    0.002127193152899    0.0  746.41    -137.005242650611    -137.005242650611    -136.920148440489    -136.818812542750   0.0000   0.0000  -0.0000   0.5585
   6098    0.002146470877861    0.0  749.97    -137.005639645176    -137.005639645176    -136.920139211322    -136.818813986631   0.0000   0.0000  -0.0000   0.5583
   6099    0.002163062462254    0.0  753.04    -137.005979174718    -137.005979174718    -136.920128131244    -136.818815206253   0.0000   0.0000  -0.0000   0.5581

 * Physical Quantities at step:  6100

   from rhoofr: total integrated electronic density
   in g-space =     64.000000   in r-space =    64.000000


                total energy =     -137.00623941816 Hartree a.u.
              kinetic energy =       97.70984 Hartree a.u.
        electrostatic energy =     -185.36152 Hartree a.u.
                         esr =        0.01235 Hartree a.u.
                       eself =      242.55691 Hartree a.u.
      pseudopotential energy =       -9.41109 Hartree a.u.
  n-l pseudopotential energy =       -6.25482 Hartree a.u.
 exchange-correlation energy =      -33.68866 Hartree a.u.
           average potential =        0.00000 Hartree a.u.



   Eigenvalues (eV), kp =   1 , spin =  1

  -23.97  -23.77  -23.14  -22.97  -22.54  -22.42  -22.21  -21.81  -12.14  -11.67
  -11.13  -10.57  -10.38  -10.07   -9.73   -9.28   -7.84   -7.74   -7.64   -7.30
   -7.25   -6.71   -6.43   -6.24   -5.66   -5.56   -5.29   -5.12   -4.74   -4.55
   -4.29   -4.01
 
 
   CELL_PARAMETERS
   13.00000000    0.00000000    0.00000000
    0.00000000   13.00000000    0.00000000
    0.00000000    0.00000000   13.00000000

   System Density [g/cm^3] :              0.7351364820


   System Volume [A.U.^3] :           2197.0000000000


   Center of mass square displacement (a.u.):   0.000000

   ATOMIC_POSITIONS
   O       0.94133544511248E+01     0.26972137818980E+01     0.11052735284907E+01
   H       0.81297706536634E+01     0.32653620493265E+01     0.22024067971437E+01
   H       0.91202192106664E+01     0.90910208567925E+00     0.12898918162130E+01
   O       0.47431560974290E+01    -0.71467211672852E+01     0.37829244072173E+01
   H       0.49304154518753E+01    -0.53883675688957E+01     0.43227299294181E+01
   H       0.30132642968343E+01    -0.67415077472546E+01     0.29315944642870E+01
   O      -0.42191078094115E+01    -0.21439396416935E+01     0.31087250629795E+01
   H      -0.27881721673812E+01    -0.34656735483897E+01     0.30708608619555E+01
   H      -0.42599207901350E+01    -0.13793725806767E+01     0.48166280872571E+01
   O      -0.41640763505273E+00     0.70968754158652E+01     0.19759859313099E+01
   H      -0.16173599573607E+01     0.57623561205737E+01     0.17445208057832E+01
   H       0.20724349505635E+00     0.75330891089337E+01     0.42575922168580E+00
   O       0.84104601787579E-02    -0.24801460349828E+01    -0.20117146565718E+01
   H      -0.95973756578846E+00    -0.11261803000983E+01    -0.10111818493667E+01
   H       0.15424858968884E+01    -0.17212195317656E+01    -0.28596579359681E+01
   O      -0.56647482187975E+01    -0.37198297806726E+01    -0.32579194461138E+01
   H      -0.38897614692019E+01    -0.37373573932780E+01    -0.31693067429856E+01
   H      -0.61780016096740E+01    -0.56610677176262E+01    -0.33201132772279E+01
   O      -0.85094806741667E+01     0.49272433022496E+01    -0.19231138432992E+01
   H      -0.90183876349324E+01     0.40571311749637E+01    -0.33722627907074E+00
   H      -0.79543022578782E+01     0.33232123938215E+01    -0.30236249940494E+01
   O       0.47177718260235E+01     0.10050578363423E+01    -0.52867440361359E+01
   H       0.49385578564295E+01    -0.70665531957923E+00    -0.49531448979034E+01
   H       0.36256590513058E+01     0.13346550868794E+01    -0.66724601336545E+01
 
   ATOMIC_VELOCITIES
   O      -0.35467288767984E-03     0.14618902193334E-04    -0.19995290249424E-03
   H       0.51503724131307E-03     0.60556896601653E-03     0.56962663896150E-03
   H      -0.54697404341005E-03    -0.77665664115704E-03    -0.18024758958214E-02
   O       0.23340425312306E-03    -0.60916508513831E-04     0.88067581364659E-04
   H       0.17059071727103E-02    -0.19913478259163E-02     0.78676424046351E-03
   H      -0.22611090602084E-02     0.20412115619271E-02    -0.10893047017600E-02
   O       0.38642850300499E-03     0.22021982528642E-03     0.13692655453527E-03
   H      -0.13765406258990E-02    -0.18575906165416E-03     0.18168446683386E-02
   H       0.13413592578781E-02     0.13916052386154E-02     0.54793317998655E-03
   O       0.45230027435751E-04    -0.59510320249900E-04    -0.19374075046759E-03
   H      -0.12583627354799E-02    -0.45758942747709E-03    -0.34802376548544E-03
   H      -0.13860644388595E-03     0.45018647057868E-03     0.51590428309405E-04
   O       0.61353432711307E-05     0.23968352602705E-03     0.12971124958696E-03
   H      -0.78193373663495E-03    -0.13735952966090E-02     0.10695426033027E-02
   H       0.50418153872214E-03    -0.20972192337567E-03    -0.40681525287328E-03
   O      -0.24911232806993E-03    -0.11471856440449E-03     0.17513881078164E-03
   H       0.21158306017301E-02     0.18575345502443E-02     0.18583524869975E-04
   H      -0.17679819018576E-03    -0.19015951615844E-02    -0.15984225666081E-03
   O       0.79725072777459E-04    -0.47349887721574E-03     0.51655236993651E-03
   H      -0.17287481587880E-02     0.98832209084039E-03    -0.11217741451234E-02
   H       0.30025239371460E-03     0.10792081197800E-02    -0.15307346220857E-03
   O      -0.17697491964992E-03     0.20571188342136E-03    -0.68587892776889E-03
   H       0.17370906057337E-03    -0.20395863259256E-02     0.60329798776215E-03
   H       0.20864448722088E-02     0.97321390698221E-03     0.14378186069308E-03
 
   Forces acting on atoms (au):
   O       0.15265249301717E-01     0.21643024884440E-02    -0.12681969207329E-01
   H      -0.24363033774385E-01     0.21772873063783E-01     0.15481431425662E-01
   H       0.59997755992580E-02    -0.19892596884138E-01     0.19361447571472E-02
   O      -0.46333983385392E-01     0.24145172180696E-01    -0.16163832819552E-01
   H       0.17899379519218E-01    -0.75037764962992E-02     0.44142182473817E-02
   H       0.28846840188372E-01    -0.21777938567683E-01     0.16835816372791E-01
   O       0.18956836057376E-01    -0.10085944348552E-01     0.13506818280923E-01
   H      -0.23380068364837E-01     0.23258113436722E-01     0.22586969488871E-02
   H       0.49215304749605E-02    -0.13001595380424E-01    -0.15858560954906E-01
   O      -0.10083829869927E-01    -0.35601256490009E-02     0.66065673018450E-01
   H      -0.65780837376521E-02    -0.19588080828460E-01    -0.62677637138265E-02
   H       0.18179079878756E-01     0.21499891822020E-01    -0.64990146573043E-01
   O      -0.40089863022286E-03     0.29657344102092E-01     0.55157359237746E-02
   H       0.31381619254346E-01    -0.25076669801866E-01    -0.26976142657769E-01
   H      -0.32228248608415E-01    -0.48510363627276E-02     0.20599666787177E-01
   O      -0.43826685687008E-01    -0.49142605224559E-01    -0.12391036259642E-01
   H       0.31912765009832E-01     0.27284079762108E-03     0.71070913889534E-03
   H       0.89100455329640E-02     0.54979353551427E-01     0.11606850759437E-01
   O       0.69113173928437E-02    -0.56118742110092E-01    -0.13214114116684E-01
   H       0.11032185657306E-01     0.16458972239982E-01    -0.16711666795706E-01
   H      -0.20551106089584E-01     0.42473706446952E-01     0.23280637966511E-01
   O       0.71895485194898E-02     0.39328608686712E-01     0.94901426623315E-02
   H       0.96200944229955E-02    -0.46368910707640E-01     0.33682402679626E-02
   H      -0.91200197368772E-02    -0.40070435350766E-03    -0.12292020195159E-01
 


   Partial temperatures (for each ionic specie) 
   Species  Temp (K)   Mean Square Displacement (a.u.)
        1   6.57E+02     1.4658E+01
        2   8.04E+02     2.0012E+01
 
  nfi     ekinc              temph  tempp     etot                 enthal               econs                econt              vnhh    xnhh0   vnhp    xnhp0
   6100    0.002174699680935    0.0  755.46    -137.006239418158    -137.006239418158    -136.920112934298    -136.818816145844   0.0000   0.0000  -0.0000   0.5580

   writing restart file (with schema): ./h2o_52.save/
     restart      :      0.12s CPU      0.29s WALL (       6 calls)


   Averaged Physical Quantities
                      accumulated      this run
   ekinc         :        0.00174       0.00156 (AU)
   ekin          :       97.84694      97.87952 (AU)
   epot          :     -228.57208    -228.60259 (AU)
   total energy  :     -136.99571    -137.00650 (AU)
   temperature   :      706.06190     620.30076 (K )
   enthalpy      :     -134.75095    -137.00650 (AU)
   econs         :     -136.91522    -136.93578 (AU)
   pressure      :        0.00000       0.00000 (Gpa)
   volume        :     2197.00000    2197.00000 (AU)



     Called by MAIN_LOOP:
     initialize   :      0.26s CPU      0.53s WALL (       1 calls)
     main_loop    :    172.38s CPU    184.72s WALL (    5000 calls)
     cpr_total    :    173.36s CPU    187.64s WALL (       1 calls)

     Called by INIT_RUN:
     init_readfil :      0.04s CPU      0.12s WALL (       1 calls)

     Called by CPR:
     cpr_md       :    173.35s CPU    187.63s WALL (    5000 calls)
     move_electro :    131.88s CPU    135.78s WALL (    5000 calls)

     Called by move_electrons:
     rhoofr       :     28.23s CPU     29.73s WALL (    5000 calls)
     vofrho       :     50.36s CPU     50.83s WALL (    5000 calls)
     dforce       :     41.95s CPU     43.69s WALL (   80000 calls)
     calphi       :      0.51s CPU      0.51s WALL (    5000 calls)
     nlfl         :      0.22s CPU      0.22s WALL (    5000 calls)

     Called by ortho:
     ortho_iter   :     13.96s CPU     14.01s WALL (    5000 calls)
     rsg          :     10.19s CPU     10.50s WALL (    5000 calls)
     rhoset       :      2.19s CPU      2.23s WALL (    5000 calls)
     sigset       :      1.32s CPU      1.34s WALL (    5000 calls)
     tauset       :      1.21s CPU      1.23s WALL (    5000 calls)
     ortho        :     29.00s CPU     29.40s WALL (    5000 calls)
     updatc       :      1.73s CPU      1.75s WALL (    5000 calls)

     Small boxes:

     Low-level routines:
     prefor       :      3.02s CPU      3.07s WALL (   20001 calls)
     nlfq         :      8.03s CPU      8.22s WALL (    5000 calls)
     nlsm1        :      3.06s CPU      3.10s WALL (    5001 calls)
     nlsm2        :      7.76s CPU      7.96s WALL (    5000 calls)
     fft          :     23.92s CPU     24.26s WALL (   40006 calls)
     ffts         :      5.65s CPU      5.79s WALL (   10000 calls)
     fftw         :     54.11s CPU     56.44s WALL (  240000 calls)
     fft_scatt_xy :      5.73s CPU      5.87s WALL (  290006 calls)
     fft_scatt_yz :     45.82s CPU     47.27s WALL (  290006 calls)
     fft_scatt_tg :      1.02s CPU      1.06s WALL (  240000 calls)
     betagx       :      0.09s CPU      0.09s WALL (       1 calls)
     qradx        :      0.00s CPU      0.00s WALL (       1 calls)
     nlinit       :      0.18s CPU      0.18s WALL (       1 calls)
     init_dim     :      0.01s CPU      0.02s WALL (       1 calls)
     newnlinit    :      0.04s CPU      0.04s WALL (       1 calls)
     from_restart :      0.00s CPU      0.01s WALL (       1 calls)
     strucf       :      1.08s CPU      1.40s WALL (    5001 calls)
     calbec       :      3.08s CPU      3.11s WALL (    5001 calls)
 
 
     CP           :   2m53.67s CPU   3m 8.37s WALL

 
   This run was terminated on:  11:45: 4  26May2021            

=------------------------------------------------------------------------------=
   JOB DONE.
=------------------------------------------------------------------------------=
0
0
0
0
0
0
0
0
0
0
0
0
0
0
0
0
0
0
0
0
