
     Program CP v.6.7MaX starts on 26May2021 at 11:23:30 

     This program is part of the open-source Quantum ESPRESSO suite
     for quantum simulation of materials; please cite
         "P. Giannozzi et al., J. Phys.:Condens. Matter 21 395502 (2009);
         "P. Giannozzi et al., J. Phys.:Condens. Matter 29 465901 (2017);
          URL http://www.quantum-espresso.org", 
     in publications or presentations arising from this work. More details at
     http://www.quantum-espresso.org/quote

     Parallel version (MPI & OpenMP), running on      20 processor cores
     Number of MPI processes:                20
     Threads/MPI process:                     1

     MPI processes distributed on     1 nodes
     R & G space division:  proc/nbgrp/npool/nimage =      20
     Reading input from cp.water8.2-cpmd.in
Warning: card  &CELL ignored
Warning: card  / ignored

   Job Title: Water 8 molecules


   Atomic Pseudopotentials Parameters
   ----------------------------------

   Reading pseudopotential for specie #  1 from file :
   ../pseudo/O_ONCV_PBE-1.2.upf
     Message from routine read_pp_mesh:
     mesh size missing, using the one in header
   file type is xml

   Reading pseudopotential for specie #  2 from file :
   ../pseudo/H_ONCV_PBE-1.2.upf
     Message from routine read_pp_mesh:
     mesh size missing, using the one in header
   file type is xml


   Main Simulation Parameters (from input)
   ---------------------------------------
   Restart Mode       =       1   restart        
   Number of MD Steps =    1000
   Print out every           10 MD Steps
   Reads from unit    =      50
   Writes to unit     =      51
   MD Simulation time step            =       5.00
   Electronic fictitious mass (emass) =      50.00
   emass cut-off                      =       2.50

   Simulation Cell Parameters (from input)
   external pressure       =            0.00 [KBar]
   wmass (calculated)      =        19964.81 [AU]
   ibrav =    1
   alat  =    13.00000000
   a1    =    13.00000000    0.00000000    0.00000000
   a2    =     0.00000000   13.00000000    0.00000000
   a3    =     0.00000000    0.00000000   13.00000000
 
   b1    =     0.07692308    0.00000000    0.00000000
   b2    =     0.00000000    0.07692308    0.00000000
   b3    =     0.00000000    0.00000000    0.07692308
   omega =    2197.00000000

   Energy Cut-offs
   ---------------
   Ecutwfc =   50.0 Ry,      Ecutrho =  200.0 Ry,      Ecuts =  200.0 Ry
   Gcutwfc =   14.6     ,    Gcutrho =   29.3          Gcuts =   29.3
   NOTA BENE: refg, mmx =   0.050000  4800
   Eigenvalues calculated without the kinetic term contribution
   Orthog. with lagrange multipliers : eps =   0.10E-08,  max = 300
   Electron dynamics with newton equations
   Electron dynamics : the temperature is not controlled

   Electronic states
   -----------------
   Number of Electrons=    64, of States =    32
   Occupation numbers :
   2.00 2.00 2.00 2.00 2.00 2.00 2.00 2.00 2.00 2.00
   2.00 2.00 2.00 2.00 2.00 2.00 2.00 2.00 2.00 2.00
   2.00 2.00 2.00 2.00 2.00 2.00 2.00 2.00 2.00 2.00
   2.00 2.00


   Exchange and correlations functionals
   -------------------------------------
     Exchange-correlation= PBE
                           (   1   4   3   4   0   0   0)


   Ions Simulation Parameters
   --------------------------
   Ions are allowed to move
   Ions dynamics with newton equations
   the temperature is computed for    72 degrees of freedom
   ion dynamics with fricp =  0.0000 and greasp =  1.0000
   Ionic position (from input)
   sorted by specie, and converted to real a.u. coordinates
   Species   1 atoms =    8 mass =     29166.22 (a.u.),        16.00 (amu) rcmax =   0.50 (a.u.)
        4.842510     3.796199     3.732738
        3.735657    -4.474700     2.924274
       -4.546686    -3.542262     3.060744
       -3.436506     4.804268     3.377234
        3.614420    -4.282746    -3.989998
       -4.437095    -4.025366    -4.085110
       -3.558789     3.877301    -3.819233
        3.837783     3.820409    -4.507997
   Species   2 atoms =   16 mass =      1837.29 (a.u.),         1.01 (amu) rcmax =   0.50 (a.u.)
        4.004590     5.986780     3.533013
        4.365118     3.872322     5.879773
        6.059148    -3.795031     3.153403
        2.874962    -3.958672     4.675187
       -3.748838    -5.811626     3.320758
       -4.053948    -2.574364     4.768354
       -5.904151     4.217430     3.801415
       -2.303077     4.672005     5.082136
        3.119866    -4.561070    -2.002200
        5.914480    -3.952983    -3.866628
       -3.950822    -3.684809    -2.102720
       -3.940399    -6.190475    -4.165351
       -3.233219     3.435242    -1.818055
       -5.690475     3.479664    -3.789435
        2.013136     3.092241    -3.913112
        3.659354     6.200317    -4.387039
   Ionic position will be re-read from restart file

   All atoms are allowed to move
   Ionic temperature is not controlled


   Cell Dynamics Parameters (from STDIN)
   -------------------------------------
   Starting cell generated from CELLDM
   Cell parameters will be re-read from restart file
   Constant VOLUME Molecular dynamics
   cell parameters are not allowed to move

   Verbosity: iverbosity =  0



   Simulation dimensions initialization
   ------------------------------------

   unit vectors of full simulation cell
   in real space:                         in reciprocal space (units 2pi/alat):
   1    13.0000    0.0000    0.0000              1.0000    0.0000    0.0000
   2     0.0000   13.0000    0.0000              0.0000    1.0000    0.0000
   3     0.0000    0.0000   13.0000              0.0000    0.0000    1.0000
 
     Parallelization info
     --------------------
     sticks:   dense  smooth     PW     G-vecs:    dense   smooth      PW
     Min         133     133     32                 5246     5246     652
     Max         136     136     34                 5256     5256     666
     Sum        2701    2701    673               105015   105015   13205
 
 
   Real Mesh
   ---------
   Global Dimensions   Local  Dimensions   Processor Grid
   .X.   .Y.   .Z.     .X.   .Y.   .Z.     .X.   .Y.   .Z.
    60    60    60      60    60     3       1     1    20
   Array leading dimensions ( nr1x, nr2x, nr3x )   =     60    60    60
   Local number of cell to store the grid ( nrxx ) =      10800
   Number of x-y planes for each processors: 
  |  60,   3  |  60,   3  |  60,   3  |  60,   3  |  60,   3
  |  60,   3  |  60,   3  |  60,   3  |  60,   3  |  60,   3
  |  60,   3  |  60,   3  |  60,   3  |  60,   3  |  60,   3
  |  60,   3  |  60,   3  |  60,   3  |  60,   3  |  60,   3
 
   Smooth Real Mesh
   ----------------
   Global Dimensions   Local  Dimensions   Processor Grid
   .X.   .Y.   .Z.     .X.   .Y.   .Z.     .X.   .Y.   .Z.
    60    60    60      60    60     3       1     1    20
   Array leading dimensions ( nr1x, nr2x, nr3x )   =     60    60    60
   Local number of cell to store the grid ( nrxx ) =      10800
   Number of x-y planes for each processors: 
  |  60,   3  |  60,   3  |  60,   3  |  60,   3  |  60,   3
  |  60,   3  |  60,   3  |  60,   3  |  60,   3  |  60,   3
  |  60,   3  |  60,   3  |  60,   3  |  60,   3  |  60,   3
  |  60,   3  |  60,   3  |  60,   3  |  60,   3  |  60,   3
 
   Reciprocal Space Mesh
   ---------------------
   Large Mesh
     Global(ngm_g)    MinLocal       MaxLocal      Average
          52508           2623           2628        2625.40
   Smooth Mesh
     Global(ngms_g)   MinLocal       MaxLocal      Average
          52508           2623           2628        2625.40
   Wave function Mesh
     Global(ngw_g)    MinLocal       MaxLocal      Average
           6603            326            333         330.15


   System geometry initialization
   ------------------------------
   cell parameters read from restart file
   ibrav =    1       cell parameters 


   cell at current step : h(t)
      13.00000       0.00000       0.00000
       0.00000      13.00000       0.00000
       0.00000       0.00000      13.00000

   cell at previous step : h(t-dt)
      13.00000       0.00000       0.00000
       0.00000      13.00000       0.00000
       0.00000       0.00000      13.00000
 

   Matrix Multiplication Performances
   ortho mmul, time for parallel driver      =   0.00005 with   16 procs

   Constraints matrixes will be distributed block like on
   ortho sub-group =    4*   4 procs



   Pseudopotentials initialization
   -------------------------------


   Common initialization

   Specie:     1
   1  indv=  1   ang. mom=  0
   2  indv=  2   ang. mom=  0
   3  indv=  3   ang. mom=  1
   4  indv=  3   ang. mom=  1
   5  indv=  3   ang. mom=  1
   6  indv=  4   ang. mom=  1
   7  indv=  4   ang. mom=  1
   8  indv=  4   ang. mom=  1
 
                        dion 
   9.7572   0.0000   0.0000   0.0000
   0.0000   1.3761   0.0000   0.0000
   0.0000   0.0000  -4.8069   0.0000
   0.0000   0.0000   0.0000  -1.6162

   Specie:     2
   1  indv=  1   ang. mom=  0
   2  indv=  2   ang. mom=  0
 
                        dion 
 -12.0082   0.0000
   0.0000  -0.5168

   Cell parameters from input file are used in electron mass preconditioning
   init_tpiba2=    0.23360010
 
   Short Legend and Physical Units in the Output
   ---------------------------------------------
   NFI    [int]          - step index
   EKINC  [HARTREE A.U.] - kinetic energy of the fictitious electronic dynamics
   TEMPH  [K]            - Temperature of the fictitious cell dynamics
   TEMP   [K]            - Ionic temperature
   ETOT   [HARTREE A.U.] - Scf total energy (Kohn-Sham hamiltonian)
   ENTHAL [HARTREE A.U.] - Enthalpy ( ETOT + P * V )
   ECONS  [HARTREE A.U.] - Enthalpy + kinetic energy of ions and cell
   ECONT  [HARTREE A.U.] - Constant of motion for the CP lagrangian
 

   formf: eself=   242.55691
   formf:     vps(g=0)=  -0.0005593     rhops(g=0)=  -0.0026914
   formf:     vps(g=0)=  -0.0005508     rhops(g=0)=  -0.0026524
   formf:     vps(g=0)=  -0.0005508     rhops(g=0)=  -0.0026524
   formf:     vps(g=0)=  -0.0005265     rhops(g=0)=  -0.0025387
   formf:     vps(g=0)=  -0.0005265     rhops(g=0)=  -0.0025387
   formf: sum_g vps(g)=  -0.8825069 sum_g rhops(g)=  -4.3113902
   formf:     vps(g=0)=  -0.0002744     rhops(g=0)=  -0.0004486
   formf:     vps(g=0)=  -0.0002718     rhops(g=0)=  -0.0004421
   formf:     vps(g=0)=  -0.0002718     rhops(g=0)=  -0.0004421
   formf:     vps(g=0)=  -0.0002644     rhops(g=0)=  -0.0004231
   formf:     vps(g=0)=  -0.0002644     rhops(g=0)=  -0.0004231
   formf: sum_g vps(g)=  -1.1488875 sum_g rhops(g)=  -0.7185650
   Delta V(G=0):   0.022861Ry,    0.622068eV
 
  nfi     ekinc              temph  tempp     etot                 enthal               econs                econt              vnhh    xnhh0   vnhp    xnhp0
    101    0.002647795260484    0.0 1120.65    -136.949154552840    -136.949154552840    -136.821395032103    -136.818747236842   0.0000   0.0000   0.0000   0.0000
    102    0.002671965344216    0.0 1144.41    -136.951891455392    -136.951891455392    -136.821422809183    -136.818750843839   0.0000   0.0000   0.0000   0.0000
    103    0.002774578317748    0.0 1170.25    -136.954930398974    -136.954930398974    -136.821515596693    -136.818741018375   0.0000   0.0000   0.0000   0.0000
    104    0.002948550831226    0.0 1197.64    -136.958235439209    -136.958235439209    -136.821697695761    -136.818749144929   0.0000   0.0000   0.0000   0.0000
    105    0.003064619011867    0.0 1226.95    -136.961706792634    -136.961706792634    -136.821827779660    -136.818763160649   0.0000   0.0000   0.0000   0.0000
    106    0.003042824929802    0.0 1258.03    -136.965231504445    -136.965231504445    -136.821809644686    -136.818766819756   0.0000   0.0000   0.0000   0.0000
    107    0.002987350070647    0.0 1289.30    -136.968746703396    -136.968746703396    -136.821759861376    -136.818772511305   0.0000   0.0000   0.0000   0.0000
    108    0.003037741456305    0.0 1318.70    -136.972151486204    -136.972151486204    -136.821813251401    -136.818775509945   0.0000   0.0000   0.0000   0.0000
    109    0.003207453296631    0.0 1345.30    -136.975353568660    -136.975353568660    -136.821981862179    -136.818774408883   0.0000   0.0000   0.0000   0.0000
    110    0.003375797384061    0.0 1369.64    -136.978302372463    -136.978302372463    -136.822156286244    -136.818780488860   0.0000   0.0000   0.0000   0.0000
    111    0.003405082025532    0.0 1392.33    -136.980923226995    -136.980923226995    -136.822190211696    -136.818785129670   0.0000   0.0000   0.0000   0.0000
    112    0.003298109801763    0.0 1412.87    -136.983156690618    -136.983156690618    -136.822082066139    -136.818783956337   0.0000   0.0000   0.0000   0.0000
    113    0.003189072623841    0.0 1429.75    -136.984976407517    -136.984976407517    -136.821977358342    -136.818788285718   0.0000   0.0000   0.0000   0.0000
    114    0.003184792489007    0.0 1441.63    -136.986326901446    -136.986326901446    -136.821974055750    -136.818789263261   0.0000   0.0000   0.0000   0.0000
    115    0.003286787865072    0.0 1448.23    -136.987179982830    -136.987179982830    -136.822074051295    -136.818787263430   0.0000   0.0000   0.0000   0.0000
    116    0.003404480412947    0.0 1450.30    -136.987534782179    -136.987534782179    -136.822193063545    -136.818788583132   0.0000   0.0000   0.0000   0.0000
    117    0.003432460924650    0.0 1448.71    -136.987377985008    -136.987377985008    -136.822217126352    -136.818784665427   0.0000   0.0000   0.0000   0.0000
    118    0.003360309685839    0.0 1443.72    -136.986732134268    -136.986732134268    -136.822141010430    -136.818780700744   0.0000   0.0000   0.0000   0.0000
    119    0.003266826728435    0.0 1434.85    -136.985628566594    -136.985628566594    -136.822048017911    -136.818781191183   0.0000   0.0000   0.0000   0.0000
    120    0.003226289396795    0.0 1421.66    -136.984081293839    -136.984081293839    -136.822004889407    -136.818778600010   0.0000   0.0000   0.0000   0.0000
    121    0.003245556010740    0.0 1404.41    -136.982130273827    -136.982130273827    -136.822020285317    -136.818774729306   0.0000   0.0000   0.0000   0.0000
    122    0.003256280935245    0.0 1384.12    -136.979825020585    -136.979825020585    -136.822028571022    -136.818772290087   0.0000   0.0000   0.0000   0.0000
    123    0.003190236537163    0.0 1361.77    -136.977204409493    -136.977204409493    -136.821956018313    -136.818765781776   0.0000   0.0000   0.0000   0.0000
    124    0.003069026120616    0.0 1337.66    -136.974330706845    -136.974330706845    -136.821830328166    -136.818761302046   0.0000   0.0000   0.0000   0.0000
    125    0.002969410540376    0.0 1311.58    -136.971258203616    -136.971258203616    -136.821730690996    -136.818761280455   0.0000   0.0000   0.0000   0.0000
    126    0.002932858776964    0.0 1283.53    -136.968020444518    -136.968020444518    -136.821690848534    -136.818757989757   0.0000   0.0000   0.0000   0.0000
    127    0.002936104974765    0.0 1254.13    -136.964669833451    -136.964669833451    -136.821692128504    -136.818756023529   0.0000   0.0000   0.0000   0.0000
    128    0.002920025472794    0.0 1224.26    -136.961245768728    -136.961245768728    -136.821673905748    -136.818753880276   0.0000   0.0000   0.0000   0.0000
    129    0.002860131786199    0.0 1194.41    -136.957779742815    -136.957779742815    -136.821610369463    -136.818750237677   0.0000   0.0000   0.0000   0.0000
    130    0.002789549873420    0.0 1164.60    -136.954308874208    -136.954308874208    -136.821538862487    -136.818749312614   0.0000   0.0000   0.0000   0.0000
    131    0.002743458709373    0.0 1134.72    -136.950856616063    -136.950856616063    -136.821492807952    -136.818749349243   0.0000   0.0000   0.0000   0.0000
    132    0.002718578619132    0.0 1104.97    -136.947440771444    -136.947440771444    -136.821468365211    -136.818749786592   0.0000   0.0000   0.0000   0.0000
    133    0.002688471305400    0.0 1075.71    -136.944074660558    -136.944074660558    -136.821437931016    -136.818749459710   0.0000   0.0000   0.0000   0.0000
    134    0.002640857661268    0.0 1047.14    -136.940769980167    -136.940769980167    -136.821390101010    -136.818749243348   0.0000   0.0000   0.0000   0.0000
    135    0.002587601755366    0.0 1019.24    -136.937534951153    -136.937534951153    -136.821336244973    -136.818748643218   0.0000   0.0000   0.0000   0.0000
    136    0.002543552642864    0.0  991.96    -136.934381409443    -136.934381409443    -136.821292476301    -136.818748923658   0.0000   0.0000   0.0000   0.0000
    137    0.002507185327844    0.0  965.44    -136.931321559492    -136.931321559492    -136.821256621474    -136.818749436147   0.0000   0.0000   0.0000   0.0000
    138    0.002470181669360    0.0  939.90    -136.928372324154    -136.928372324154    -136.821219374787    -136.818749193118   0.0000   0.0000   0.0000   0.0000
    139    0.002432709396866    0.0  915.55    -136.925559152121    -136.925559152121    -136.821181518568    -136.818748809171   0.0000   0.0000   0.0000   0.0000
    140    0.002401819419910    0.0  892.65    -136.922913639847    -136.922913639847    -136.821147071703    -136.818745252284   0.0000   0.0000   0.0000   0.0000
    141    0.002381910489160    0.0  871.60    -136.920490584883    -136.920490584883    -136.821123715233    -136.818741804744   0.0000   0.0000   0.0000   0.0000
    142    0.002363475415824    0.0  853.05    -136.918353116357    -136.918353116357    -136.821101113635    -136.818737638219   0.0000   0.0000   0.0000   0.0000
    143    0.002335990560924    0.0  837.79    -136.916580233138    -136.916580233138    -136.821067950710    -136.818731960149   0.0000   0.0000   0.0000   0.0000
    144    0.002303948466266    0.0  826.63    -136.915271359493    -136.915271359493    -136.821030679066    -136.818726730600   0.0000   0.0000   0.0000   0.0000
    145    0.002282268170392    0.0  820.37    -136.914528870306    -136.914528870306    -136.821002432417    -136.818720164246   0.0000   0.0000   0.0000   0.0000
    146    0.002288137314409    0.0  819.78    -136.914459794426    -136.914459794426    -136.821000975873    -136.818712838558   0.0000   0.0000   0.0000   0.0000
    147    0.002328422144678    0.0  825.70    -136.915169127796    -136.915169127796    -136.821035387641    -136.818706965497   0.0000   0.0000   0.0000   0.0000
    148    0.002389561795116    0.0  838.99    -136.916743467601    -136.916743467601    -136.821094244789    -136.818704682994   0.0000   0.0000   0.0000   0.0000
    149    0.002451078725006    0.0  860.31    -136.919234945155    -136.919234945155    -136.821155115762    -136.818704037037   0.0000   0.0000   0.0000   0.0000
    150    0.002512636802879    0.0  889.81    -136.922661911335    -136.922661911335    -136.821219378648    -136.818706741845   0.0000   0.0000   0.0000   0.0000
    151    0.002593216361063    0.0  927.00    -136.926988729565    -136.926988729565    -136.821306180702    -136.818712964341   0.0000   0.0000   0.0000   0.0000
    152    0.002710341583050    0.0  970.92    -136.932122084286    -136.932122084286    -136.821431834940    -136.818721493357   0.0000   0.0000   0.0000   0.0000
    153    0.002861931012919    0.0 1020.35    -136.937921928453    -136.937921928453    -136.821597055730    -136.818735124717   0.0000   0.0000   0.0000   0.0000
    154    0.003024561955997    0.0 1073.78    -136.944192224451    -136.944192224451    -136.821775359929    -136.818750797973   0.0000   0.0000   0.0000   0.0000
    155    0.003178872262707    0.0 1129.39    -136.950702277373    -136.950702277373    -136.821946390073    -136.818767517810   0.0000   0.0000   0.0000   0.0000
    156    0.003322199806073    0.0 1184.98    -136.957200476645    -136.957200476645    -136.822106739761    -136.818784539955   0.0000   0.0000   0.0000   0.0000
    157    0.003458345590855    0.0 1238.28    -136.963429179867    -136.963429179867    -136.822258866989    -136.818800521398   0.0000   0.0000   0.0000   0.0000
    158    0.003586991190896    0.0 1287.15    -136.969144445140    -136.969144445140    -136.822402661860    -136.818815670669   0.0000   0.0000   0.0000   0.0000
    159    0.003701798231860    0.0 1329.73    -136.974125461609    -136.974125461609    -136.822529602648    -136.818827804416   0.0000   0.0000   0.0000   0.0000
    160    0.003795959240876    0.0 1364.51    -136.978193768644    -136.978193768644    -136.822632165642    -136.818836206401   0.0000   0.0000   0.0000   0.0000
    161    0.003861454630285    0.0 1390.47    -136.981223376084    -136.981223376084    -136.822702131296    -136.818840676666   0.0000   0.0000   0.0000   0.0000
    162    0.003888610773498    0.0 1407.09    -136.983145377588    -136.983145377588    -136.822729844252    -136.818841233479   0.0000   0.0000   0.0000   0.0000
    163    0.003876189891727    0.0 1414.29    -136.983950612562    -136.983950612562    -136.822713842889    -136.818837652997   0.0000   0.0000   0.0000   0.0000
    164    0.003836318132249    0.0 1412.41    -136.983690477186    -136.983690477186    -136.822667807664    -136.818831489532   0.0000   0.0000   0.0000   0.0000
    165    0.003781048356702    0.0 1402.24    -136.982465739801    -136.982465739801    -136.822603311266    -136.818822262909   0.0000   0.0000   0.0000   0.0000
    166    0.003713024781199    0.0 1385.05    -136.980425213345    -136.980425213345    -136.822522492473    -136.818809467692   0.0000   0.0000   0.0000   0.0000
    167    0.003629679384873    0.0 1362.52    -136.977760593309    -136.977760593309    -136.822425638574    -136.818795959189   0.0000   0.0000   0.0000   0.0000
    168    0.003531351353728    0.0 1336.51    -136.974681879807    -136.974681879807    -136.822312439258    -136.818781087904   0.0000   0.0000   0.0000   0.0000
    169    0.003427515048079    0.0 1308.87    -136.971412819017    -136.971412819017    -136.822194559466    -136.818767044418   0.0000   0.0000   0.0000   0.0000
    170    0.003326980557018    0.0 1281.43    -136.968171802402    -136.968171802402    -136.822081732380    -136.818754751823   0.0000   0.0000   0.0000   0.0000
    171    0.003233236881836    0.0 1255.91    -136.965157174730    -136.965157174730    -136.821976719071    -136.818743482189   0.0000   0.0000   0.0000   0.0000
    172    0.003151721206970    0.0 1233.75    -136.962540701126    -136.962540701126    -136.821887240537    -136.818735519330   0.0000   0.0000   0.0000   0.0000
    173    0.003087992955307    0.0 1215.99    -136.960448230478    -136.960448230478    -136.821818511180    -136.818730518225   0.0000   0.0000   0.0000   0.0000
    174    0.003042646041590    0.0 1203.34    -136.958958629949    -136.958958629949    -136.821771985638    -136.818729339597   0.0000   0.0000   0.0000   0.0000
    175    0.003011142494220    0.0 1196.05    -136.958098803868    -136.958098803868    -136.821742617873    -136.818731475379   0.0000   0.0000   0.0000   0.0000
    176    0.002993607991377    0.0 1193.94    -136.957845107050    -136.957845107050    -136.821729336181    -136.818735728190   0.0000   0.0000   0.0000   0.0000
    177    0.002998496444574    0.0 1196.36    -136.958131950983    -136.958131950983    -136.821740885676    -136.818742389232   0.0000   0.0000   0.0000   0.0000
    178    0.003026102317452    0.0 1202.39    -136.958856900658    -136.958856900658    -136.821777721110    -136.818751618793   0.0000   0.0000   0.0000   0.0000
    179    0.003058948094505    0.0 1211.07    -136.959889091123    -136.959889091123    -136.821820576675    -136.818761628581   0.0000   0.0000   0.0000   0.0000
    180    0.003081025262557    0.0 1221.30    -136.961087032601    -136.961087032601    -136.821851903810    -136.818770878548   0.0000   0.0000   0.0000   0.0000
    181    0.003095446320995    0.0 1231.83    -136.962310469025    -136.962310469025    -136.821875365719    -136.818779919398   0.0000   0.0000   0.0000   0.0000
    182    0.003113734522523    0.0 1241.37    -136.963422654601    -136.963422654601    -136.821900517019    -136.818786782496   0.0000   0.0000   0.0000   0.0000
    183    0.003136535794340    0.0 1248.88    -136.964308338095    -136.964308338095    -136.821929230146    -136.818792694352   0.0000   0.0000   0.0000   0.0000
    184    0.003149065086941    0.0 1253.68    -136.964872743379    -136.964872743379    -136.821946427717    -136.818797362630   0.0000   0.0000   0.0000   0.0000
    185    0.003142467700336    0.0 1255.23    -136.965044594039    -136.965044594039    -136.821941722284    -136.818799254584   0.0000   0.0000   0.0000   0.0000
    186    0.003127278243001    0.0 1253.07    -136.964784096652    -136.964784096652    -136.821927203982    -136.818799925739   0.0000   0.0000   0.0000   0.0000
    187    0.003113052770890    0.0 1246.97    -136.964073839921    -136.964073839921    -136.821912190089    -136.818799137318   0.0000   0.0000   0.0000   0.0000
    188    0.003092361829359    0.0 1237.04    -136.962918746331    -136.962918746331    -136.821889578070    -136.818797216241   0.0000   0.0000   0.0000   0.0000
    189    0.003054054612077    0.0 1223.59    -136.961343012525    -136.961343012525    -136.821847934396    -136.818793879784   0.0000   0.0000   0.0000   0.0000
    190    0.003003497091130    0.0 1206.92    -136.959388162248    -136.959388162248    -136.821793012284    -136.818789515193   0.0000   0.0000   0.0000   0.0000
    191    0.002956344315605    0.0 1187.38    -136.957108649972    -136.957108649972    -136.821740724518    -136.818784380202   0.0000   0.0000   0.0000   0.0000
    192    0.002914376716969    0.0 1165.52    -136.954569185628    -136.954569185628    -136.821693570252    -136.818779193535   0.0000   0.0000   0.0000   0.0000
    193    0.002861260291134    0.0 1142.09    -136.951839421702    -136.951839421702    -136.821635554055    -136.818774293764   0.0000   0.0000   0.0000   0.0000
    194    0.002789290615599    0.0 1117.78    -136.948990499311    -136.948990499311    -136.821557986731    -136.818768696115   0.0000   0.0000   0.0000   0.0000
    195    0.002718123192705    0.0 1093.08    -136.946097806841    -136.946097806841    -136.821481463077    -136.818763339884   0.0000   0.0000   0.0000   0.0000
    196    0.002671692417458    0.0 1068.40    -136.943233535927    -136.943233535927    -136.821429871082    -136.818758178664   0.0000   0.0000   0.0000   0.0000
    197    0.002646814443797    0.0 1044.38    -136.940465139799    -136.940465139799    -136.821400350465    -136.818753536021   0.0000   0.0000   0.0000   0.0000
    198    0.002617420313014    0.0 1021.75    -136.937852592870    -136.937852592870    -136.821367348717    -136.818749928404   0.0000   0.0000   0.0000   0.0000
    199    0.002569136255848    0.0 1001.07    -136.935443825630    -136.935443825630    -136.821316148070    -136.818747011814   0.0000   0.0000   0.0000   0.0000

 * Physical Quantities at step:   200

   from rhoofr: total integrated electronic density
   in g-space =     64.000000   in r-space =    64.000000


                total energy =     -136.93327519030 Hartree a.u.
              kinetic energy =       97.57712 Hartree a.u.
        electrostatic energy =     -185.37083 Hartree a.u.
                         esr =        0.01260 Hartree a.u.
                       eself =      242.55691 Hartree a.u.
      pseudopotential energy =       -9.31187 Hartree a.u.
  n-l pseudopotential energy =       -6.15639 Hartree a.u.
 exchange-correlation energy =      -33.67131 Hartree a.u.
           average potential =        0.00000 Hartree a.u.



   Eigenvalues (eV), kp =   1 , spin =  1

  -24.49  -23.79  -23.67  -23.14  -22.57  -22.29  -21.86  -20.08  -11.90  -11.70
  -11.02  -10.52  -10.33  -10.28  -10.14   -8.71   -8.55   -8.06   -7.85   -7.53
   -7.14   -6.65   -6.54   -6.44   -5.61   -5.30   -5.20   -4.94   -4.83   -4.68
   -4.10   -3.48
 
 
   CELL_PARAMETERS
   13.00000000    0.00000000    0.00000000
    0.00000000   13.00000000    0.00000000
    0.00000000    0.00000000   13.00000000

   System Density [g/cm^3] :              0.7351364820


   System Volume [A.U.^3] :           2197.0000000000


   Center of mass square displacement (a.u.):   0.000000

   ATOMIC_POSITIONS
   O       0.55633978571923E+01     0.37015247882026E+01     0.36627632593521E+01
   H       0.50431069037629E+01     0.53066995781523E+01     0.29627748186702E+01
   H       0.47495681424174E+01     0.34687199012260E+01     0.53370772040239E+01
   O       0.35725126330500E+01    -0.48148936533273E+01     0.21514821633127E+01
   H       0.57945597714460E+01    -0.37072061274971E+01     0.28496502092812E+01
   H       0.24389297506036E+01    -0.44570067558434E+01     0.37396172894011E+01
   O      -0.47200038692149E+01    -0.32611825341693E+01     0.30281195935859E+01
   H      -0.37938075905805E+01    -0.52107039332482E+01     0.30050816717979E+01
   H      -0.50380866391034E+01    -0.28188767152900E+01     0.49678901912922E+01
   O      -0.27683553838078E+01     0.52440297585044E+01     0.31218963348650E+01
   H      -0.43652774775842E+01     0.45640639738281E+01     0.38542305039205E+01
   H      -0.18108860714571E+01     0.54150950550526E+01     0.48732843297415E+01
   O       0.30313391385249E+01    -0.44432373720531E+01    -0.34476370054113E+01
   H       0.30580248035232E+01    -0.52073620206234E+01    -0.18868382294111E+01
   H       0.46829113028240E+01    -0.41343814465581E+01    -0.33285737059391E+01
   O      -0.47571257467219E+01    -0.40246521948226E+01    -0.43246459076893E+01
   H      -0.39477947426398E+01    -0.26984875157810E+01    -0.33001098250802E+01
   H      -0.44717204651514E+01    -0.57416651765161E+01    -0.39271246897759E+01
   O      -0.40265539457832E+01     0.39152345212890E+01    -0.32739037042657E+01
   H      -0.43435680341299E+01     0.39100067338070E+01    -0.13309257013204E+01
   H      -0.58729390275304E+01     0.33164054826620E+01    -0.40638854244836E+01
   O       0.41868111872131E+01     0.36732861406683E+01    -0.41261577180003E+01
   H       0.28520608673547E+01     0.28974368815101E+01    -0.28351680832584E+01
   H       0.37228548816621E+01     0.52542704503771E+01    -0.43232803634790E+01
 
   ATOMIC_VELOCITIES
   O       0.21385836360336E-03    -0.27318345320977E-03    -0.25944237903125E-04
   H       0.14310237185635E-02    -0.12041742998469E-02     0.41338790054114E-03
   H      -0.37135900364999E-03     0.84138316184670E-03    -0.21797517747473E-02
   O      -0.19321915768561E-03    -0.10489753280483E-03    -0.68653258005983E-03
   H       0.21457848799676E-02     0.81306301726515E-03    -0.10015559174190E-02
   H      -0.16407474216087E-02    -0.60785309437031E-03     0.78113521002618E-03
   O      -0.10733358454852E-03     0.15218474348059E-03    -0.43364658363823E-04
   H       0.10383257267283E-02     0.94118481730204E-03    -0.14432967440063E-02
   H      -0.23851484939831E-03     0.88225980868396E-03     0.25415563861874E-02
   O       0.36228743209742E-03     0.18312461609029E-03    -0.33052562137743E-03
   H       0.77128282616148E-03     0.36237674723776E-03    -0.18198591764763E-03
   H       0.15231952194707E-02     0.67077993358765E-03     0.20474013859006E-02
   O      -0.25613284606689E-03     0.40036412412264E-04     0.20616700001070E-03
   H      -0.16058169178659E-04    -0.14324520372165E-02     0.25832520760459E-02
   H      -0.89399896423709E-03    -0.14370319266068E-02     0.27320814559867E-02
   O      -0.29956898733714E-03     0.95838671272613E-04    -0.37474592149612E-03
   H       0.21954597529802E-02     0.13844106358092E-02     0.16383848989958E-02
   H       0.36367831265084E-03    -0.31839906558844E-02     0.18514090058118E-02
   O      -0.35513468411306E-03     0.17100810698646E-03     0.19645033572431E-03
   H       0.44343897238792E-03     0.70409464414332E-03     0.27135883637974E-02
   H       0.14656838210937E-02     0.15935483385576E-03    -0.33713587102542E-03
   O       0.25931627685177E-03    -0.18881287372283E-03     0.25454799606339E-03
   H      -0.15529834429323E-02    -0.49955677414058E-03     0.10970875932425E-02
   H      -0.69652113673558E-03     0.41081529383199E-03    -0.49321754327341E-03
 
   Forces acting on atoms (au):
   O       0.11566660414873E-01    -0.26731462251798E-01     0.20877690957558E-01
   H      -0.22877268403821E-01     0.23861715817278E-01    -0.33253994991214E-02
   H       0.41749407175768E-02     0.40523354296039E-02    -0.19437083748330E-01
   O       0.10251356425483E-01     0.25304514183035E-01     0.59013121154925E-01
   H      -0.19724150086550E-01    -0.23675682245711E-01    -0.27521398192060E-01
   H       0.31826499646864E-01    -0.96454199972332E-02    -0.49397880401627E-01
   O      -0.24695637064417E-01    -0.96811804260714E-02     0.53094483902547E-01
   H      -0.13475567572101E-01     0.31277399954166E-01     0.39313779737348E-02
   H       0.23108199361164E-01    -0.17335207110541E-01    -0.47904886150311E-01
   O       0.32290834649394E-01     0.15442273030821E-01     0.63378035614795E-01
   H      -0.13979672261642E-01    -0.12088935812913E-01    -0.11922715270468E-01
   H      -0.17498536037027E-01    -0.42833100567377E-02    -0.54745317656233E-01
   O      -0.79857262670413E-01    -0.61214013802720E-02    -0.41823734303905E-01
   H      -0.29613440844960E-01    -0.22743129608280E-01     0.67773117115355E-01
   H       0.10878317697819E+00     0.37468419093956E-01    -0.19745065028849E-01
   O      -0.14253772190345E-01     0.60552047605534E-01    -0.19065620671361E-01
   H      -0.15351739265934E-02    -0.28063873078072E-01    -0.37612341537821E-02
   H       0.21026098256116E-01    -0.33523802225224E-01     0.21732022032393E-01
   O      -0.43312766447975E-01    -0.12909034812853E-01     0.23518378214137E-01
   H       0.73632664865857E-02    -0.29294326513039E-02    -0.53049267147896E-01
   H       0.49914325615356E-01     0.20184186895444E-01     0.37015764754040E-01
   O      -0.19035715665274E-01    -0.15204660446897E+00     0.46010016639331E-01
   H       0.45457312119362E-01     0.22282755523529E-01    -0.43202299826494E-01
   H      -0.38028626876416E-01     0.12912678639817E+00    -0.12105702328939E-01
 


   Partial temperatures (for each ionic specie) 
   Species  Temp (K)   Mean Square Displacement (a.u.)
        1   6.38E+02     4.6435E-01
        2   1.15E+03     1.1671E+00
 
  nfi     ekinc              temph  tempp     etot                 enthal               econs                econt              vnhh    xnhh0   vnhp    xnhp0
    200    0.002519288598648    0.0  982.51    -136.933275190302    -136.933275190302    -136.821263862202    -136.818744573603   0.0000   0.0000   0.0000   0.0000
    201    0.002494658233808    0.0  966.05    -136.931371878652    -136.931371878652    -136.821237676521    -136.818743018287   0.0000   0.0000   0.0000   0.0000
    202    0.002497292597369    0.0  951.76    -136.929745223382    -136.929745223382    -136.821239867067    -136.818742574470   0.0000   0.0000   0.0000   0.0000
    203    0.002505396187025    0.0  939.82    -136.928392628796    -136.928392628796    -136.821247876104    -136.818742479917   0.0000   0.0000   0.0000   0.0000
    204    0.002503114941786    0.0  930.28    -136.927303024440    -136.927303024440    -136.821246568037    -136.818743453096   0.0000   0.0000   0.0000   0.0000
    205    0.002494393486145    0.0  922.90    -136.926454497208    -136.926454497208    -136.821239027363    -136.818744633877   0.0000   0.0000   0.0000   0.0000
    206    0.002491241661083    0.0  917.36    -136.925821015111    -136.925821015111    -136.821236761242    -136.818745519581   0.0000   0.0000   0.0000   0.0000
    207    0.002496415770594    0.0  913.41    -136.925376611444    -136.925376611444    -136.821243451731    -136.818747035960   0.0000   0.0000   0.0000   0.0000
    208    0.002503122217480    0.0  910.84    -136.925091600007    -136.925091600007    -136.821250967265    -136.818747845047   0.0000   0.0000   0.0000   0.0000
    209    0.002509917772677    0.0  909.46    -136.924941632951    -136.924941632951    -136.821258227786    -136.818748310013   0.0000   0.0000   0.0000   0.0000
    210    0.002520309787737    0.0  909.06    -136.924907252815    -136.924907252815    -136.821269314864    -136.818749005076   0.0000   0.0000   0.0000   0.0000
    211    0.002531744379191    0.0  909.52    -136.924971139279    -136.924971139279    -136.821280723597    -136.818748979217   0.0000   0.0000   0.0000   0.0000
    212    0.002538820157571    0.0  910.81    -136.925124019297    -136.925124019297    -136.821287233524    -136.818748413366   0.0000   0.0000   0.0000   0.0000
    213    0.002542825093467    0.0  912.87    -136.925363235757    -136.925363235757    -136.821290986095    -136.818748161002   0.0000   0.0000   0.0000   0.0000
    214    0.002551214619988    0.0  915.65    -136.925687277645    -136.925687277645    -136.821298625315    -136.818747410695   0.0000   0.0000   0.0000   0.0000
    215    0.002568376259544    0.0  919.13    -136.926100118282    -136.926100118282    -136.821314591539    -136.818746215279   0.0000   0.0000   0.0000   0.0000
    216    0.002587028594350    0.0  923.44    -136.926609153467    -136.926609153467    -136.821332715800    -136.818745687206   0.0000   0.0000   0.0000   0.0000
    217    0.002595584549467    0.0  928.70    -136.927217447562    -136.927217447562    -136.821340335492    -136.818744750943   0.0000   0.0000   0.0000   0.0000
    218    0.002596032836569    0.0  934.95    -136.927929663561    -136.927929663561    -136.821340251155    -136.818744218318   0.0000   0.0000   0.0000   0.0000
    219    0.002601377692444    0.0  942.08    -136.928748090735    -136.928748090735    -136.821345921319    -136.818744543627   0.0000   0.0000   0.0000   0.0000
    220    0.002618910403977    0.0  950.01    -136.929669341194    -136.929669341194    -136.821363503568    -136.818744593164   0.0000   0.0000   0.0000   0.0000
    221    0.002644781801600    0.0  958.72    -136.930689033580    -136.930689033580    -136.821389765605    -136.818744983804   0.0000   0.0000   0.0000   0.0000
    222    0.002670295952419    0.0  968.21    -136.931796958044    -136.931796958044    -136.821416285374    -136.818745989421   0.0000   0.0000   0.0000   0.0000
    223    0.002691553545390    0.0  978.35    -136.932976005275    -136.932976005275    -136.821438776746    -136.818747223201   0.0000   0.0000   0.0000   0.0000
    224    0.002711510143751    0.0  988.95    -136.934206397745    -136.934206397745    -136.821460529089    -136.818749018945   0.0000   0.0000   0.0000   0.0000
    225    0.002732922791084    0.0  999.78    -136.935463828068    -136.935463828068    -136.821484227896    -136.818751305105   0.0000   0.0000   0.0000   0.0000
    226    0.002756828303080    0.0 1010.56    -136.936718842374    -136.936718842374    -136.821509904068    -136.818753075765   0.0000   0.0000   0.0000   0.0000
    227    0.002785806165262    0.0 1021.01    -136.937941702097    -136.937941702097    -136.821541321856    -136.818755515691   0.0000   0.0000   0.0000   0.0000
    228    0.002819459914506    0.0 1030.82    -136.939096518336    -136.939096518336    -136.821578004158    -136.818758544243   0.0000   0.0000   0.0000   0.0000
    229    0.002852547510481    0.0 1039.68    -136.940143085330    -136.940143085330    -136.821614005707    -136.818761458197   0.0000   0.0000   0.0000   0.0000
    230    0.002879847678673    0.0 1047.29    -136.941041074195    -136.941041074195    -136.821644889087    -136.818765041409   0.0000   0.0000   0.0000   0.0000
    231    0.002900142254975    0.0 1053.26    -136.941745277250    -136.941745277250    -136.821668427783    -136.818768285529   0.0000   0.0000   0.0000   0.0000
    232    0.002917408024789    0.0 1057.17    -136.942211387619    -136.942211387619    -136.821689000760    -136.818771592735   0.0000   0.0000   0.0000   0.0000
    233    0.002933476691296    0.0 1058.60    -136.942395059927    -136.942395059927    -136.821708971654    -136.818775494963   0.0000   0.0000   0.0000   0.0000
    234    0.002943758222069    0.0 1057.21    -136.942249934459    -136.942249934459    -136.821722670473    -136.818778912251   0.0000   0.0000   0.0000   0.0000
    235    0.002944646664620    0.0 1052.66    -136.941735240101    -136.941735240101    -136.821726332790    -136.818781686125   0.0000   0.0000   0.0000   0.0000
    236    0.002936610401518    0.0 1044.67    -136.940818531398    -136.940818531398    -136.821720725955    -136.818784115553   0.0000   0.0000   0.0000   0.0000
    237    0.002919400520267    0.0 1033.04    -136.939476464216    -136.939476464216    -136.821704822756    -136.818785422236   0.0000   0.0000   0.0000   0.0000
    238    0.002891319972206    0.0 1017.72    -136.937702221518    -136.937702221518    -136.821676746453    -136.818785426481   0.0000   0.0000   0.0000   0.0000
    239    0.002852514069730    0.0  998.83    -136.935508658152    -136.935508658152    -136.821636845169    -136.818784331099   0.0000   0.0000   0.0000   0.0000
    240    0.002806813070217    0.0  976.63    -136.932928932491    -136.932928932491    -136.821588074018    -136.818781260948   0.0000   0.0000   0.0000   0.0000
    241    0.002758024254123    0.0  951.61    -136.930022698637    -136.930022698637    -136.821534659725    -136.818776635471   0.0000   0.0000   0.0000   0.0000
    242    0.002702861986012    0.0  924.53    -136.926874358261    -136.926874358261    -136.821473078656    -136.818770216670   0.0000   0.0000   0.0000   0.0000
    243    0.002634840343016    0.0  896.41    -136.923592910288    -136.923592910288    -136.821397008865    -136.818762168522   0.0000   0.0000   0.0000   0.0000
    244    0.002555210714392    0.0  868.38    -136.920308690988    -136.920308690988    -136.821308435493    -136.818753224779   0.0000   0.0000   0.0000   0.0000
    245    0.002475693163257    0.0  841.61    -136.917166609340    -136.917166609340    -136.821219118413    -136.818743425250   0.0000   0.0000   0.0000   0.0000
    246    0.002408942930112    0.0  817.32    -136.914321703549    -136.914321703549    -136.821142849763    -136.818733906833   0.0000   0.0000   0.0000   0.0000
    247    0.002356826323416    0.0  796.85    -136.911927176734    -136.911927176734    -136.821081552362    -136.818724726039   0.0000   0.0000   0.0000   0.0000
    248    0.002313545015909    0.0  781.52    -136.910127315721    -136.910127315721    -136.821030063149    -136.818716518133   0.0000   0.0000   0.0000   0.0000
    249    0.002277559636794    0.0  772.43    -136.909048425647    -136.909048425647    -136.820987703583    -136.818710143946   0.0000   0.0000   0.0000   0.0000
    250    0.002256668287122    0.0  770.38    -136.908789367255    -136.908789367255    -136.820962419225    -136.818705750938   0.0000   0.0000   0.0000   0.0000
    251    0.002261376524467    0.0  775.86    -136.909416698951    -136.909416698951    -136.820965150542    -136.818703774018   0.0000   0.0000   0.0000   0.0000
    252    0.002293097613602    0.0  789.10    -136.910959015795    -136.910959015795    -136.820997556178    -136.818704458565   0.0000   0.0000   0.0000   0.0000
    253    0.002342215265577    0.0  810.09    -136.913404086266    -136.913404086266    -136.821049917619    -136.818707702354   0.0000   0.0000   0.0000   0.0000
    254    0.002400165930708    0.0  838.45    -136.916700521738    -136.916700521738    -136.821113146768    -136.818712980837   0.0000   0.0000   0.0000   0.0000
    255    0.002469810083262    0.0  873.40    -136.920762101443    -136.920762101443    -136.821190182028    -136.818720371945   0.0000   0.0000   0.0000   0.0000
    256    0.002559733061756    0.0  913.83    -136.925469810503    -136.925469810503    -136.821288722410    -136.818728989348   0.0000   0.0000   0.0000   0.0000
    257    0.002670653730480    0.0  958.48    -136.930681145756    -136.930681145756    -136.821409367416    -136.818738713685   0.0000   0.0000   0.0000   0.0000
    258    0.002789562931868    0.0 1006.08    -136.936237029438    -136.936237029438    -136.821538980538    -136.818749417606   0.0000   0.0000   0.0000   0.0000
    259    0.002901346614622    0.0 1055.28    -136.941968593617    -136.941968593617    -136.821661198469    -136.818759851854   0.0000   0.0000   0.0000   0.0000
    260    0.003004051147927    0.0 1104.64    -136.947708206150    -136.947708206150    -136.821773973350    -136.818769922202   0.0000   0.0000   0.0000   0.0000
    261    0.003105225934032    0.0 1152.66    -136.953293343328    -136.953293343328    -136.821884087960    -136.818778862026   0.0000   0.0000   0.0000   0.0000
    262    0.003207109708888    0.0 1198.02    -136.958574202543    -136.958574202543    -136.821993735020    -136.818786625311   0.0000   0.0000   0.0000   0.0000
    263    0.003300737339574    0.0 1239.63    -136.963418306514    -136.963418306514    -136.822093855031    -136.818793117691   0.0000   0.0000   0.0000   0.0000
    264    0.003375640578569    0.0 1276.61    -136.967714166987    -136.967714166987    -136.822173784428    -136.818798143849   0.0000   0.0000   0.0000   0.0000
    265    0.003429862206437    0.0 1308.20    -136.971373796860    -136.971373796860    -136.822231653145    -136.818801790939   0.0000   0.0000   0.0000   0.0000
    266    0.003467143637119    0.0 1333.81    -136.974332516177    -136.974332516177    -136.822270934588    -136.818803790951   0.0000   0.0000   0.0000   0.0000
    267    0.003489454446640    0.0 1353.06    -136.976549735818    -136.976549735818    -136.822293941544    -136.818804487097   0.0000   0.0000   0.0000   0.0000
    268    0.003496984069115    0.0 1365.78    -136.978006834757    -136.978006834757    -136.822300519282    -136.818803535213   0.0000   0.0000   0.0000   0.0000
    269    0.003492836525735    0.0 1371.99    -136.978708201532    -136.978708201532    -136.822294563103    -136.818801726577   0.0000   0.0000   0.0000   0.0000
    270    0.003479586281906    0.0 1371.85    -136.978676045782    -136.978676045782    -136.822278535634    -136.818798949352   0.0000   0.0000   0.0000   0.0000
    271    0.003453914633405    0.0 1365.73    -136.977949454280    -136.977949454280    -136.822248974255    -136.818795059621   0.0000   0.0000   0.0000   0.0000
    272    0.003409100480970    0.0 1354.18    -136.976582935615    -136.976582935615    -136.822199872160    -136.818790771679   0.0000   0.0000   0.0000   0.0000
    273    0.003344147234694    0.0 1337.75    -136.974640658868    -136.974640658868    -136.822129808695    -136.818785661460   0.0000   0.0000   0.0000   0.0000
    274    0.003268945252866    0.0 1317.03    -136.972197699996    -136.972197699996    -136.822049369085    -136.818780423832   0.0000   0.0000   0.0000   0.0000
    275    0.003194460465740    0.0 1292.63    -136.969335894949    -136.969335894949    -136.821969487525    -136.818775027059   0.0000   0.0000   0.0000   0.0000
    276    0.003121456025795    0.0 1265.30    -136.966142248486    -136.966142248486    -136.821890889590    -136.818769433564   0.0000   0.0000   0.0000   0.0000
    277    0.003042788058024    0.0 1235.92    -136.962707383262    -136.962707383262    -136.821806386190    -136.818763598132   0.0000   0.0000   0.0000   0.0000
    278    0.002955139703665    0.0 1205.31    -136.959124592999    -136.959124592999    -136.821712749157    -136.818757609453   0.0000   0.0000   0.0000   0.0000
    279    0.002864280432238    0.0 1174.27    -136.955489025000    -136.955489025000    -136.821616155024    -136.818751874592   0.0000   0.0000   0.0000   0.0000
    280    0.002778175741635    0.0 1143.55    -136.951895433271    -136.951895433271    -136.821524310874    -136.818746135132   0.0000   0.0000   0.0000   0.0000
    281    0.002699227161690    0.0 1113.97    -136.948438601604    -136.948438601604    -136.821439832138    -136.818740604977   0.0000   0.0000   0.0000   0.0000
    282    0.002624979739394    0.0 1086.36    -136.945211058522    -136.945211058522    -136.821360134534    -136.818735154795   0.0000   0.0000   0.0000   0.0000
    283    0.002554867172286    0.0 1061.50    -136.942302178027    -136.942302178027    -136.821285157149    -136.818730289977   0.0000   0.0000   0.0000   0.0000
    284    0.002493104877852    0.0 1040.09    -136.939794670284    -136.939794670284    -136.821218740502    -136.818725635624   0.0000   0.0000   0.0000   0.0000
    285    0.002445649297792    0.0 1022.74    -136.937765475155    -136.937765475155    -136.821167222412    -136.818721573115   0.0000   0.0000   0.0000   0.0000
    286    0.002413946668712    0.0 1010.04    -136.936281888521    -136.936281888521    -136.821132434821    -136.818718488152   0.0000   0.0000   0.0000   0.0000
    287    0.002394802823832    0.0 1002.48    -136.935398082138    -136.935398082138    -136.821110636929    -136.818715834106   0.0000   0.0000   0.0000   0.0000
    288    0.002385886418590    0.0 1000.45    -136.935156792774    -136.935156792774    -136.821100641890    -136.818714755471   0.0000   0.0000   0.0000   0.0000
    289    0.002386981531569    0.0 1004.17    -136.935582427174    -136.935582427174    -136.821101578208    -136.818714596677   0.0000   0.0000   0.0000   0.0000
    290    0.002400902797307    0.0 1013.71    -136.936684121502    -136.936684121502    -136.821116105312    -136.818715202515   0.0000   0.0000   0.0000   0.0000
    291    0.002431654927590    0.0 1028.97    -136.938456495279    -136.938456495279    -136.821148642323    -136.818716987396   0.0000   0.0000   0.0000   0.0000
    292    0.002480302726147    0.0 1049.75    -136.940877109203    -136.940877109203    -136.821199714508    -136.818719411782   0.0000   0.0000   0.0000   0.0000
    293    0.002544470256208    0.0 1075.77    -136.943910328308    -136.943910328308    -136.821267065082    -136.818722594826   0.0000   0.0000   0.0000   0.0000
    294    0.002619110222331    0.0 1106.64    -136.947508134864    -136.947508134864    -136.821345883855    -136.818726773633   0.0000   0.0000   0.0000   0.0000
    295    0.002699273668439    0.0 1141.86    -136.951609512380    -136.951609512380    -136.821430954077    -136.818731680408   0.0000   0.0000   0.0000   0.0000
    296    0.002785337289413    0.0 1180.83    -136.956142908244    -136.956142908244    -136.821522182578    -136.818736845289   0.0000   0.0000   0.0000   0.0000
    297    0.002882107709616    0.0 1222.78    -136.961028737067    -136.961028737067    -136.821625227649    -136.818743119939   0.0000   0.0000   0.0000   0.0000
    298    0.002990702195690    0.0 1266.91    -136.966174847584    -136.966174847584    -136.821740501193    -136.818749798997   0.0000   0.0000   0.0000   0.0000
    299    0.003106681596141    0.0 1312.37    -136.971480785412    -136.971480785412    -136.821863596473    -136.818756914877   0.0000   0.0000   0.0000   0.0000

 * Physical Quantities at step:   300

   from rhoofr: total integrated electronic density
   in g-space =     64.000000   in r-space =    64.000000


                total energy =     -136.97683758045 Hartree a.u.
              kinetic energy =       97.79485 Hartree a.u.
        electrostatic energy =     -185.44465 Hartree a.u.
                         esr =        0.01195 Hartree a.u.
                       eself =      242.55691 Hartree a.u.
      pseudopotential energy =       -9.35437 Hartree a.u.
  n-l pseudopotential energy =       -6.25599 Hartree a.u.
 exchange-correlation energy =      -33.71669 Hartree a.u.
           average potential =        0.00000 Hartree a.u.



   Eigenvalues (eV), kp =   1 , spin =  1

  -24.06  -23.49  -23.19  -22.72  -22.57  -22.30  -21.80  -21.31  -11.35  -11.29
  -11.07  -10.69  -10.56  -10.35   -9.92   -9.16   -8.17   -7.85   -7.58   -7.22
   -6.98   -6.91   -6.54   -5.83   -5.39   -5.22   -5.00   -4.85   -4.70   -4.64
   -4.45   -4.10
 
 
   CELL_PARAMETERS
   13.00000000    0.00000000    0.00000000
    0.00000000   13.00000000    0.00000000
    0.00000000    0.00000000   13.00000000

   System Density [g/cm^3] :              0.7351364820


   System Volume [A.U.^3] :           2197.0000000000


   Center of mass square displacement (a.u.):   0.000000

   ATOMIC_POSITIONS
   O       0.57011618030292E+01     0.35780363464703E+01     0.36212548406297E+01
   H       0.49724590759915E+01     0.50127410546986E+01     0.28580329139904E+01
   H       0.46172085896777E+01     0.33851352411038E+01     0.49466487909424E+01
   O       0.36260063936543E+01    -0.48365413646613E+01     0.18552016787235E+01
   H       0.53803273763867E+01    -0.41996487475197E+01     0.22678689094192E+01
   H       0.23909808711117E+01    -0.46647330287782E+01     0.33081285373275E+01
   O      -0.48839888111065E+01    -0.31570620005325E+01     0.30645888906373E+01
   H      -0.35381024621189E+01    -0.45894791880954E+01     0.26346972655773E+01
   H      -0.45459740759411E+01    -0.31487273397624E+01     0.51380591487818E+01
   O      -0.25579446714054E+01     0.53640788799213E+01     0.30525253775023E+01
   H      -0.41166472416048E+01     0.44525414106675E+01     0.34333212947650E+01
   H      -0.13415860208943E+01     0.54950927917789E+01     0.46379685696702E+01
   O       0.29313050379386E+01    -0.45563605243113E+01    -0.32002180806811E+01
   H       0.20784112098520E+01    -0.45515130105780E+01    -0.14961198927784E+01
   H       0.46054178372949E+01    -0.39701740926405E+01    -0.33238079311109E+01
   O      -0.48523988836782E+01    -0.40278507353562E+01    -0.44187185869801E+01
   H      -0.33789174347833E+01    -0.31739081082094E+01    -0.33222366896069E+01
   H      -0.45009911764257E+01    -0.57095775017423E+01    -0.39750140734564E+01
   O      -0.41039934335726E+01     0.40695499071699E+01    -0.31093981262123E+01
   H      -0.41818482748154E+01     0.38401815105976E+01    -0.11223590192183E+01
   H      -0.59398330102189E+01     0.34306924988486E+01    -0.34949408879521E+01
   O       0.41976857929695E+01     0.35937379940300E+01    -0.40166708264383E+01
   H       0.28171768697746E+01     0.27488758826745E+01    -0.29473511029574E+01
   H       0.37638390441723E+01     0.52045444371883E+01    -0.38484618577847E+01
 
   ATOMIC_VELOCITIES
   O       0.22276317830031E-03    -0.87709087201521E-04    -0.14965394811327E-03
   H      -0.33567744117997E-03    -0.15692722667126E-02    -0.84725364831262E-03
   H       0.79101777978334E-03    -0.17797320600607E-02     0.40691092816207E-03
   O       0.32243493864926E-03    -0.56141555673278E-04    -0.57093113005555E-03
   H      -0.50873121891405E-02    -0.15682550071757E-02     0.10809241986235E-02
   H       0.27148678752481E-02     0.47445855351823E-03    -0.22123314784327E-02
   O      -0.34106447363506E-03     0.21121554545419E-03     0.62238871527287E-04
   H      -0.54406613084440E-03     0.85136993502679E-03    -0.34070525378127E-03
   H      -0.30386529898926E-03    -0.83055047019127E-03    -0.54844399401329E-03
   O       0.52746222398949E-03     0.29097104296570E-03    -0.11215306621506E-03
   H       0.96976650956965E-03    -0.28587336458298E-03     0.18889515922000E-03
   H      -0.10114150891981E-02    -0.91835644210312E-03    -0.17577272173215E-02
   O      -0.31975583087563E-03    -0.42864893038006E-03     0.42482566538553E-03
   H      -0.20370427560197E-02     0.28412769200559E-02     0.23681137817394E-02
   H       0.19603976233597E-02     0.20734497714045E-02    -0.71033095341437E-03
   O      -0.74293789155383E-04     0.13251234299840E-03    -0.85873709158324E-04
   H      -0.17565413526290E-03     0.47239662831211E-06    -0.13050135422925E-02
   H      -0.52955086603758E-03    -0.37243851762142E-02    -0.11848412552522E-02
   O      -0.15534677782332E-03     0.30127690971047E-03     0.42588072129527E-03
   H       0.23633968801644E-03    -0.39018843194625E-03    -0.18882592778580E-02
   H       0.17242655298718E-02     0.18382832086156E-02     0.31763175053366E-02
   O      -0.29092779513657E-03    -0.17464039574364E-03     0.17290025779164E-03
   H       0.22712712506388E-02     0.32005990636733E-04    -0.16297967304871E-02
   H       0.10826753215696E-02    -0.42395742711193E-04     0.25487758297535E-02
 
   Forces acting on atoms (au):
   O       0.45473109983773E-01    -0.15516975627185E-01    -0.37330701213057E-01
   H      -0.12934383492699E-01     0.32959550667258E-01    -0.25268075664122E-01
   H      -0.33193556534251E-01    -0.18699380275112E-01     0.61144412231001E-01
   O      -0.34817328905855E-01    -0.10215623177104E-01     0.17708107945482E-01
   H      -0.44780388087025E-02     0.93575691151101E-02     0.13416613294975E-01
   H       0.35790895359018E-01     0.38395915747000E-02    -0.26057591315362E-01
   O       0.46614687408819E-01    -0.22569303913007E-01     0.54382313807952E-01
   H      -0.36256033100309E-01     0.26092784395562E-01     0.10721646953858E-01
   H      -0.19180464395237E-01    -0.74654493247071E-03    -0.64896044700426E-01
   O       0.58913833850873E-01     0.13043639421067E-01     0.30293618215164E-01
   H      -0.71855420186501E-02    -0.52538601951867E-02     0.17834007938488E-01
   H      -0.48966410284000E-01    -0.13278419580655E-01    -0.47470080670472E-01
   O      -0.64159351918893E-01    -0.19403629988681E-01     0.17747048110679E-02
   H       0.39497070403503E-01     0.68371916778584E-02    -0.21764402130960E-01
   H       0.29576291305118E-01     0.16104199230226E-01     0.15800670453512E-01
   O       0.46236580883028E-01     0.74283611104535E-01     0.24608947986298E-01
   H      -0.51756951382564E-01    -0.19804274584120E-01    -0.38168576190531E-01
   H       0.52521734808269E-02    -0.56134154618771E-01     0.83310569790893E-02
   O      -0.24800879258513E-01    -0.20652362819732E-01     0.58469671772332E-01
   H       0.99824116403111E-02     0.88191670512449E-02    -0.59471017630627E-01
   H       0.30255865340929E-01     0.13195947978082E-01     0.34070311801852E-02
   O      -0.22697517805180E-01    -0.13140474678298E+00     0.86528789909448E-02
   H       0.35687775780000E-01     0.12526983122163E-01    -0.25707271037368E-01
   H      -0.28143994830743E-01     0.12078719832258E+00     0.11376979582137E-01
 


   Partial temperatures (for each ionic specie) 
   Species  Temp (K)   Mean Square Displacement (a.u.)
        1   7.64E+02     7.8068E-01
        2   1.66E+03     1.6326E+00
 
  nfi     ekinc              temph  tempp     etot                 enthal               econs                econt              vnhh    xnhh0   vnhp    xnhp0
    300    0.003223266761275    0.0 1358.26    -136.976837580453    -136.976837580453    -136.821988456701    -136.818765189940   0.0000   0.0000   0.0000   0.0000
    301    0.003335119638144    0.0 1403.57    -136.982123686272    -136.982123686272    -136.822108905168    -136.818773785530   0.0000   0.0000   0.0000   0.0000
    302    0.003441385029838    0.0 1447.18    -136.987210725230    -136.987210725230    -136.822224294813    -136.818782909783   0.0000   0.0000   0.0000   0.0000
    303    0.003542854379489    0.0 1487.91    -136.991964918453    -136.991964918453    -136.822335055756    -136.818792201376   0.0000   0.0000   0.0000   0.0000
    304    0.003639576345395    0.0 1524.58    -136.996251171888    -136.996251171888    -136.822440857918    -136.818801281572   0.0000   0.0000   0.0000   0.0000
    305    0.003731392979577    0.0 1556.04    -136.999938084598    -136.999938084598    -136.822541045988    -136.818809653009   0.0000   0.0000   0.0000   0.0000
    306    0.003816601651713    0.0 1581.25    -137.002904270210    -137.002904270210    -136.822633687590    -136.818817085938   0.0000   0.0000   0.0000   0.0000
    307    0.003888721933806    0.0 1599.33    -137.005044448625    -137.005044448625    -136.822711992969    -136.818823271035   0.0000   0.0000   0.0000   0.0000
    308    0.003938212887229    0.0 1609.66    -137.006276089584    -137.006276089584    -136.822765969690    -136.818827756802   0.0000   0.0000   0.0000   0.0000
    309    0.003960204798712    0.0 1611.81    -137.006545297121    -137.006545297121    -136.822790349113    -136.818830144314   0.0000   0.0000   0.0000   0.0000
    310    0.003959966967779    0.0 1605.56    -137.005831528450    -137.005831528450    -136.822789402309    -136.818829435341   0.0000   0.0000   0.0000   0.0000
    311    0.003947109781944    0.0 1590.99    -137.004154244728    -137.004154244728    -136.822773556436    -136.818826446654   0.0000   0.0000   0.0000   0.0000
    312    0.003922268605331    0.0 1568.58    -137.001569319777    -137.001569319777    -136.822743295068    -136.818821026463   0.0000   0.0000   0.0000   0.0000
    313    0.003877255167610    0.0 1539.22    -136.998169347666    -136.998169347666    -136.822690692619    -136.818813437451   0.0000   0.0000   0.0000   0.0000
    314    0.003807654861226    0.0 1504.03    -136.994079402437    -136.994079402437    -136.822612290573    -136.818804635712   0.0000   0.0000   0.0000   0.0000
    315    0.003721442784901    0.0 1464.25    -136.989447476760    -136.989447476760    -136.822515570718    -136.818794127933   0.0000   0.0000   0.0000   0.0000
    316    0.003634830044691    0.0 1421.20    -136.984442484765    -136.984442484765    -136.822417862012    -136.818783031968   0.0000   0.0000   0.0000   0.0000
    317    0.003556948647087    0.0 1376.38    -136.979243401222    -136.979243401222    -136.822328979023    -136.818772030376   0.0000   0.0000   0.0000   0.0000
    318    0.003483852295855    0.0 1331.38    -136.974029310455    -136.974029310455    -136.822245282113    -136.818761429817   0.0000   0.0000   0.0000   0.0000
    319    0.003408189517554    0.0 1287.76    -136.968971689600    -136.968971689600    -136.822159843098    -136.818751653580   0.0000   0.0000   0.0000   0.0000
    320    0.003329236380558    0.0 1246.91    -136.964226662912    -136.964226662912    -136.822072385470    -136.818743149089   0.0000   0.0000   0.0000   0.0000
    321    0.003253446095849    0.0 1209.94    -136.959929242212    -136.959929242212    -136.821989624078    -136.818736177982   0.0000   0.0000   0.0000   0.0000
    322    0.003189222945311    0.0 1177.75    -136.956190357658    -136.956190357658    -136.821920285036    -136.818731062091   0.0000   0.0000   0.0000   0.0000
    323    0.003142023053848    0.0 1151.03    -136.953093293819    -136.953093293819    -136.821870130536    -136.818728107482   0.0000   0.0000   0.0000   0.0000
    324    0.003112992233262    0.0 1130.22    -136.950690271770    -136.950690271770    -136.821839632944    -136.818726640711   0.0000   0.0000   0.0000   0.0000
    325    0.003099778511733    0.0 1115.54    -136.949004370715    -136.949004370715    -136.821826841410    -136.818727062899   0.0000   0.0000   0.0000   0.0000
    326    0.003097477934907    0.0 1106.98    -136.948027795018    -136.948027795018    -136.821826226708    -136.818728748774   0.0000   0.0000   0.0000   0.0000
    327    0.003103414858768    0.0 1104.27    -136.947727850908    -136.947727850908    -136.821835357547    -136.818731942688   0.0000   0.0000   0.0000   0.0000
    328    0.003118383507276    0.0 1106.91    -136.948049330730    -136.948049330730    -136.821855334409    -136.818736950902   0.0000   0.0000   0.0000   0.0000
    329    0.003143384497063    0.0 1114.25    -136.948916298054    -136.948916298054    -136.821885650302    -136.818742265805   0.0000   0.0000   0.0000   0.0000
    330    0.003177849238764    0.0 1125.53    -136.950242366048    -136.950242366048    -136.821925762976    -136.818747913737   0.0000   0.0000   0.0000   0.0000
    331    0.003217666682269    0.0 1139.96    -136.951932144346    -136.951932144346    -136.821971044541    -136.818753377858   0.0000   0.0000   0.0000   0.0000
    332    0.003257712348716    0.0 1156.71    -136.953886865560    -136.953886865560    -136.822016013657    -136.818758301308   0.0000   0.0000   0.0000   0.0000
    333    0.003295410889131    0.0 1174.97    -136.956011435137    -136.956011435137    -136.822058506822    -136.818763095933   0.0000   0.0000   0.0000   0.0000
    334    0.003329500302715    0.0 1193.97    -136.958215864900    -136.958215864900    -136.822097243357    -136.818767743054   0.0000   0.0000   0.0000   0.0000
    335    0.003359336218941    0.0 1212.98    -136.960416522017    -136.960416522017    -136.822130955025    -136.818771618806   0.0000   0.0000   0.0000   0.0000
    336    0.003386450938080    0.0 1231.33    -136.962538956349    -136.962538956349    -136.822161147121    -136.818774696183   0.0000   0.0000   0.0000   0.0000
    337    0.003412785951810    0.0 1248.43    -136.964517118495    -136.964517118495    -136.822190054790    -136.818777268839   0.0000   0.0000   0.0000   0.0000
    338    0.003437286230769    0.0 1263.77    -136.966292481948    -136.966292481948    -136.822216273587    -136.818778987356   0.0000   0.0000   0.0000   0.0000
    339    0.003455187059153    0.0 1276.97    -136.967816658719    -136.967816658719    -136.822235903642    -136.818780716583   0.0000   0.0000   0.0000   0.0000
    340    0.003459987005855    0.0 1287.70    -136.969046511856    -136.969046511856    -136.822242038670    -136.818782051664   0.0000   0.0000   0.0000   0.0000
    341    0.003450441987081    0.0 1295.66    -136.969945585443    -136.969945585443    -136.822233114781    -136.818782672794   0.0000   0.0000   0.0000   0.0000
    342    0.003432725967116    0.0 1300.55    -136.970485493686    -136.970485493686    -136.822215971930    -136.818783245962   0.0000   0.0000   0.0000   0.0000
    343    0.003412996538237    0.0 1302.10    -136.970642646347    -136.970642646347    -136.822196248617    -136.818783252079   0.0000   0.0000   0.0000   0.0000
    344    0.003391719715423    0.0 1300.18    -136.970402082634    -136.970402082634    -136.822174431385    -136.818782711670   0.0000   0.0000   0.0000   0.0000
    345    0.003363854151697    0.0 1294.79    -136.969758109157    -136.969758109157    -136.822145593184    -136.818781739032   0.0000   0.0000   0.0000   0.0000
    346    0.003324034044271    0.0 1285.98    -136.968713189655    -136.968713189655    -136.822104209259    -136.818780175215   0.0000   0.0000   0.0000   0.0000
    347    0.003272176954854    0.0 1273.88    -136.967278929861    -136.967278929861    -136.822050123660    -136.818777946705   0.0000   0.0000   0.0000   0.0000
    348    0.003212635719288    0.0 1258.61    -136.965476763968    -136.965476763968    -136.821988104198    -136.818775468479   0.0000   0.0000   0.0000   0.0000
    349    0.003149038027415    0.0 1240.42    -136.963335674192    -136.963335674192    -136.821921559980    -136.818772521953   0.0000   0.0000   0.0000   0.0000
    350    0.003082947574392    0.0 1219.60    -136.960892676043    -136.960892676043    -136.821852029677    -136.818769082103   0.0000   0.0000   0.0000   0.0000
    351    0.003014749030878    0.0 1196.53    -136.958191332804    -136.958191332804    -136.821780364196    -136.818765615165   0.0000   0.0000   0.0000   0.0000
    352    0.002944138187657    0.0 1171.63    -136.955278069921    -136.955278069921    -136.821705923704    -136.818761785516   0.0000   0.0000   0.0000   0.0000
    353    0.002871125444077    0.0 1145.33    -136.952203168308    -136.952203168308    -136.821629461125    -136.818758335681   0.0000   0.0000   0.0000   0.0000
    354    0.002796006745274    0.0 1118.06    -136.949016171945    -136.949016171945    -136.821551012448    -136.818755005703   0.0000   0.0000   0.0000   0.0000
    355    0.002721239843698    0.0 1090.24    -136.945766175286    -136.945766175286    -136.821472943977    -136.818751704133   0.0000   0.0000   0.0000   0.0000
    356    0.002650334665783    0.0 1062.25    -136.942500899192    -136.942500899192    -136.821399358747    -136.818749024081   0.0000   0.0000   0.0000   0.0000
    357    0.002583424099024    0.0 1034.45    -136.939262519339    -136.939262519339    -136.821329790684    -136.818746366585   0.0000   0.0000   0.0000   0.0000
    358    0.002518227696882    0.0 1007.22    -136.936090982471    -136.936090982471    -136.821262130242    -136.818743902545   0.0000   0.0000   0.0000   0.0000
    359    0.002453642459946    0.0  980.90    -136.933023431211    -136.933023431211    -136.821195567779    -136.818741925319   0.0000   0.0000   0.0000   0.0000
    360    0.002391633627555    0.0  955.75    -136.930092217443    -136.930092217443    -136.821131860607    -136.818740226979   0.0000   0.0000   0.0000   0.0000
    361    0.002336488086869    0.0  931.99    -136.927326692449    -136.927326692449    -136.821074926202    -136.818738438115   0.0000   0.0000   0.0000   0.0000
    362    0.002290580627504    0.0  909.86    -136.924755952252    -136.924755952252    -136.821027611751    -136.818737031124   0.0000   0.0000   0.0000   0.0000
    363    0.002251139879215    0.0  889.61    -136.922406683053    -136.922406683053    -136.820986805812    -136.818735665933   0.0000   0.0000   0.0000   0.0000
    364    0.002214821241054    0.0  871.51    -136.920305409554    -136.920305409554    -136.820948835058    -136.818734013817   0.0000   0.0000   0.0000   0.0000
    365    0.002182429037217    0.0  855.80    -136.918480288231    -136.918480288231    -136.820915042512    -136.818732613474   0.0000   0.0000   0.0000   0.0000
    366    0.002156817390250    0.0  842.68    -136.916958217145    -136.916958217145    -136.820887805189    -136.818730987799   0.0000   0.0000   0.0000   0.0000
    367    0.002139779785472    0.0  832.40    -136.915767570305    -136.915767570305    -136.820869217215    -136.818729437429   0.0000   0.0000   0.0000   0.0000
    368    0.002130572211283    0.0  825.21    -136.914936620606    -136.914936620606    -136.820858622507    -136.818728050296   0.0000   0.0000   0.0000   0.0000
    369    0.002127822245463    0.0  821.34    -136.914491907097    -136.914491907097    -136.820854610730    -136.818726788484   0.0000   0.0000   0.0000   0.0000
    370    0.002132063101601    0.0  821.01    -136.914457326507    -136.914457326507    -136.820857723149    -136.818725660048   0.0000   0.0000   0.0000   0.0000
    371    0.002145140349688    0.0  824.38    -136.914853179406    -136.914853179406    -136.820869940138    -136.818724799788   0.0000   0.0000   0.0000   0.0000
    372    0.002168131221982    0.0  831.56    -136.915694656353    -136.915694656353    -136.820892645222    -136.818724514000   0.0000   0.0000   0.0000   0.0000
    373    0.002201323384550    0.0  842.63    -136.916989876049    -136.916989876049    -136.820925941061    -136.818724617677   0.0000   0.0000   0.0000   0.0000
    374    0.002245169366966    0.0  857.59    -136.918740107576    -136.918740107576    -136.820970713893    -136.818725544526   0.0000   0.0000   0.0000   0.0000
    375    0.002298902583546    0.0  876.37    -136.920936741181    -136.920936741181    -136.821025792827    -136.818726890243   0.0000   0.0000   0.0000   0.0000
    376    0.002360528365196    0.0  898.85    -136.923562719190    -136.923562719190    -136.821089328020    -136.818728799654   0.0000   0.0000   0.0000   0.0000
    377    0.002428113633872    0.0  924.80    -136.926591150001    -136.926591150001    -136.821159695734    -136.818731582100   0.0000   0.0000   0.0000   0.0000
    378    0.002501545302109    0.0  953.88    -136.929983351558    -136.929983351558    -136.821236424146    -136.818734878844   0.0000   0.0000   0.0000   0.0000
    379    0.002582673343271    0.0  985.65    -136.933690876923    -136.933690876923    -136.821321696710    -136.818739023367   0.0000   0.0000   0.0000   0.0000
    380    0.002671466938116    0.0 1019.59    -136.937653883258    -136.937653883258    -136.821415361811    -136.818743894873   0.0000   0.0000   0.0000   0.0000
    381    0.002764718096764    0.0 1055.10    -136.941801467711    -136.941801467711    -136.821514205190    -136.818749487093   0.0000   0.0000   0.0000   0.0000
    382    0.002859254734822    0.0 1091.50    -136.946051877442    -136.946051877442    -136.821614954976    -136.818755700241   0.0000   0.0000   0.0000   0.0000
    383    0.002954221618961    0.0 1127.99    -136.950313516954    -136.950313516954    -136.821716842612    -136.818762620994   0.0000   0.0000   0.0000   0.0000
    384    0.003048874891820    0.0 1163.69    -136.954485898950    -136.954485898950    -136.821818871044    -136.818769996152   0.0000   0.0000   0.0000   0.0000
    385    0.003140015218506    0.0 1197.71    -136.958463142978    -136.958463142978    -136.821917563631    -136.818777548413   0.0000   0.0000   0.0000   0.0000
    386    0.003222898519870    0.0 1229.15    -136.962137714282    -136.962137714282    -136.822007963819    -136.818785065300   0.0000   0.0000   0.0000   0.0000
    387    0.003294725263454    0.0 1257.12    -136.965404446342    -136.965404446342    -136.822086552646    -136.818791827382   0.0000   0.0000   0.0000   0.0000
    388    0.003355489627867    0.0 1280.77    -136.968167556101    -136.968167556101    -136.822153522858    -136.818798033230   0.0000   0.0000   0.0000   0.0000
    389    0.003404099479194    0.0 1299.38    -136.970343481886    -136.970343481886    -136.822206954511    -136.818802855032   0.0000   0.0000   0.0000   0.0000
    390    0.003438000368603    0.0 1312.44    -136.971869324219    -136.971869324219    -136.822243901604    -136.818805901235   0.0000   0.0000   0.0000   0.0000
    391    0.003455349123189    0.0 1319.64    -136.972708377620    -136.972708377620    -136.822262609855    -136.818807260732   0.0000   0.0000   0.0000   0.0000
    392    0.003455739886214    0.0 1320.90    -136.972851994552    -136.972851994552    -136.822262170520    -136.818806430634   0.0000   0.0000   0.0000   0.0000
    393    0.003440109892910    0.0 1316.43    -136.972323797905    -136.972323797905    -136.822243649767    -136.818803539874   0.0000   0.0000   0.0000   0.0000
    394    0.003409597561850    0.0 1306.70    -136.971179152135    -136.971179152135    -136.822208250728    -136.818798653167   0.0000   0.0000   0.0000   0.0000
    395    0.003365811364400    0.0 1292.44    -136.969503062706    -136.969503062706    -136.822157748527    -136.818791937163   0.0000   0.0000   0.0000   0.0000
    396    0.003311867040063    0.0 1274.61    -136.967407151822    -136.967407151822    -136.822095473606    -136.818783606565   0.0000   0.0000   0.0000   0.0000
    397    0.003250850736993    0.0 1254.33    -136.965025176613    -136.965025176613    -136.822025560682    -136.818774709945   0.0000   0.0000   0.0000   0.0000
    398    0.003183993852168    0.0 1232.87    -136.962502790947    -136.962502790947    -136.821949391228    -136.818765397376   0.0000   0.0000   0.0000   0.0000
    399    0.003114604940768    0.0 1211.53    -136.959990998690    -136.959990998690    -136.821870595132    -136.818755990192   0.0000   0.0000   0.0000   0.0000

 * Physical Quantities at step:   400

   from rhoofr: total integrated electronic density
   in g-space =     64.000000   in r-space =    64.000000


                total energy =     -136.95763801430 Hartree a.u.
              kinetic energy =       98.48814 Hartree a.u.
        electrostatic energy =     -185.66176 Hartree a.u.
                         esr =        0.01992 Hartree a.u.
                       eself =      242.55691 Hartree a.u.
      pseudopotential energy =       -9.49170 Hartree a.u.
  n-l pseudopotential energy =       -6.41087 Hartree a.u.
 exchange-correlation energy =      -33.88145 Hartree a.u.
           average potential =        0.00000 Hartree a.u.



   Eigenvalues (eV), kp =   1 , spin =  1

  -24.48  -23.81  -23.67  -23.26  -22.72  -22.51  -21.65  -21.12  -12.04  -11.48
  -11.22  -10.82  -10.69  -10.51   -9.74   -8.87   -8.31   -7.98   -7.67   -7.39
   -7.10   -6.72   -6.55   -6.30   -5.49   -5.40   -5.15   -4.78   -4.69   -4.58
   -4.00   -3.47
 
 
   CELL_PARAMETERS
   13.00000000    0.00000000    0.00000000
    0.00000000   13.00000000    0.00000000
    0.00000000    0.00000000   13.00000000

   System Density [g/cm^3] :              0.7351364820


   System Volume [A.U.^3] :           2197.0000000000


   Center of mass square displacement (a.u.):   0.000000

   ATOMIC_POSITIONS
   O       0.58344856118061E+01     0.34995567520331E+01     0.35298475463657E+01
   H       0.45485819116682E+01     0.45294572335424E+01     0.27417999859576E+01
   H       0.51553371624920E+01     0.28358819420414E+01     0.51671761562929E+01
   O       0.36787583518297E+01    -0.49141427097390E+01     0.15815114279254E+01
   H       0.57953357502419E+01    -0.39598261757803E+01     0.23811132431457E+01
   H       0.25246483787628E+01    -0.45583164669263E+01     0.27125263995924E+01
   O      -0.50443144377582E+01    -0.30358140570215E+01     0.31256843349688E+01
   H      -0.40395539474933E+01    -0.44846978277763E+01     0.24084187875651E+01
   H      -0.49708375008952E+01    -0.33640546679294E+01     0.51495501279867E+01
   O      -0.23050185961481E+01     0.54776485070724E+01     0.29675522437763E+01
   H      -0.39009541465454E+01     0.45994988577875E+01     0.34140132213616E+01
   H      -0.13228464341229E+01     0.50871291695190E+01     0.42473953654715E+01
   O       0.27900595116524E+01    -0.47278754529340E+01    -0.29874893384888E+01
   H       0.25767691377366E+01    -0.36438664067105E+01    -0.12637952623298E+01
   H       0.44504114752242E+01    -0.37080830911255E+01    -0.34665797487474E+01
   O      -0.49069828512116E+01    -0.40572515510870E+01    -0.44908070543669E+01
   H      -0.34888713525255E+01    -0.32756351391144E+01    -0.39103540291097E+01
   H      -0.44326719945011E+01    -0.58185154006705E+01    -0.40629072809034E+01
   O      -0.41440492459296E+01     0.42285055927273E+01    -0.28809398273111E+01
   H      -0.33187453491192E+01     0.40608905739189E+01    -0.14250386311617E+01
   H      -0.60451019077227E+01     0.38071320067550E+01    -0.30098853608017E+01
   O       0.40772560746572E+01     0.35609102567232E+01    -0.39396963874901E+01
   H       0.32579354069183E+01     0.23593400515843E+01    -0.31532020526468E+01
   H       0.35249689041324E+01     0.50330230109151E+01    -0.31422008067395E+01
 
   ATOMIC_VELOCITIES
   O       0.42269044729994E-03    -0.20598313553032E-03    -0.28962048751511E-03
   H      -0.18720989429122E-02     0.66492229228998E-05     0.62030732444380E-03
   H       0.13430251917917E-03    -0.67919906291600E-03     0.16642312771949E-02
   O       0.30014133428324E-03    -0.36216842243392E-04    -0.24846203591566E-03
   H      -0.27190035227775E-06    -0.35903150812921E-03    -0.35576400176221E-02
   H      -0.13532397520052E-02    -0.22986691639171E-03    -0.14361670998696E-02
   O      -0.34882300152335E-03     0.11700370581390E-03     0.27680084335022E-03
   H      -0.19792215303266E-02     0.12799941103654E-02     0.15419107924075E-02
   H      -0.55146601726463E-03    -0.22617879401382E-04    -0.23847429735386E-02
   O       0.51944578968131E-03     0.12543969211539E-03    -0.50912802145306E-04
   H      -0.53020929576823E-03     0.95960205412348E-03    -0.11964471507074E-02
   H       0.38806509172577E-03     0.16652237697234E-03    -0.21547875621519E-02
   O      -0.31336217799267E-03    -0.17671528370002E-03     0.42051280774827E-03
   H       0.46070634497056E-03    -0.18305210943015E-02     0.10264679034136E-02
   H       0.16643142005610E-02    -0.29545061597981E-03    -0.23907366823806E-02
   O      -0.10967624125602E-03     0.19390851940921E-03    -0.26397506233796E-03
   H      -0.14786864384184E-02    -0.11277774615349E-02    -0.15486007931785E-02
   H       0.17037311683715E-02    -0.29633571810563E-02     0.17981711727958E-02
[...]
   1048    0.002489320595504    0.0 1017.70    -136.937270023370    -136.937270023370    -136.821247111687    -136.818757791091   0.0000   0.0000   0.0000   0.0000
   1049    0.002541971828173    0.0 1031.43    -136.938892846424    -136.938892846424    -136.821304022273    -136.818762050444   0.0000   0.0000   0.0000   0.0000
   1050    0.002596577938285    0.0 1045.19    -136.940521002618    -136.940521002618    -136.821363575671    -136.818766997733   0.0000   0.0000   0.0000   0.0000
   1051    0.002651292188812    0.0 1058.34    -136.942080000145    -136.942080000145    -136.821423553562    -136.818772261373   0.0000   0.0000   0.0000   0.0000
   1052    0.002703006983328    0.0 1070.22    -136.943490797596    -136.943490797596    -136.821480381270    -136.818777374286   0.0000   0.0000   0.0000   0.0000
   1053    0.002747932392265    0.0 1080.18    -136.944676414663    -136.944676414663    -136.821529928733    -136.818781996341   0.0000   0.0000   0.0000   0.0000
   1054    0.002783486118356    0.0 1087.66    -136.945568334923    -136.945568334923    -136.821569171424    -136.818785685306   0.0000   0.0000   0.0000   0.0000
   1055    0.002809526865029    0.0 1092.19    -136.946113098069    -136.946113098069    -136.821597630363    -136.818788103498   0.0000   0.0000   0.0000   0.0000
   1056    0.002826831324908    0.0 1093.47    -136.946277335047    -136.946277335047    -136.821615826301    -136.818788994976   0.0000   0.0000   0.0000   0.0000
   1057    0.002834721001520    0.0 1091.43    -136.946051159825    -136.946051159825    -136.821622885891    -136.818788164889   0.0000   0.0000   0.0000   0.0000
   1058    0.002831522985941    0.0 1086.21    -136.945450429311    -136.945450429311    -136.821617008937    -136.818785485952   0.0000   0.0000   0.0000   0.0000
   1059    0.002817193481466    0.0 1078.19    -136.944517759221    -136.944517759221    -136.821598388965    -136.818781195483   0.0000   0.0000   0.0000   0.0000
   1060    0.002793578869604    0.0 1067.94    -136.943320142293    -136.943320142293    -136.821569305327    -136.818775726457   0.0000   0.0000   0.0000   0.0000
   1061    0.002762420387756    0.0 1056.20    -136.941944101121    -136.941944101121    -136.821531584757    -136.818769164369   0.0000   0.0000   0.0000   0.0000
   1062    0.002725265547285    0.0 1043.85    -136.940491341995    -136.940491341995    -136.821487313269    -136.818762047721   0.0000   0.0000   0.0000   0.0000
   1063    0.002685099125194    0.0 1031.80    -136.939070922653    -136.939070922653    -136.821440077683    -136.818754978558   0.0000   0.0000   0.0000   0.0000
   1064    0.002647393523939    0.0 1020.96    -136.937790818361    -136.937790818361    -136.821395819389    -136.818748425865   0.0000   0.0000   0.0000   0.0000
   1065    0.002617792774344    0.0 1012.14    -136.936750541468    -136.936750541468    -136.821360838756    -136.818743045982   0.0000   0.0000   0.0000   0.0000
   1066    0.002597995194504    0.0 1006.06    -136.936033276597    -136.936033276597    -136.821337055462    -136.818739060267   0.0000   0.0000   0.0000   0.0000
   1067    0.002585721820417    0.0 1003.27    -136.935700691075    -136.935700691075    -136.821322561753    -136.818736839932   0.0000   0.0000   0.0000   0.0000
   1068    0.002578810441038    0.0 1004.10    -136.935788086593    -136.935788086593    -136.821315188837    -136.818736378396   0.0000   0.0000   0.0000   0.0000
   1069    0.002578895248341    0.0 1008.61    -136.936303379710    -136.936303379710    -136.821316398219    -136.818737502971   0.0000   0.0000   0.0000   0.0000
   1070    0.002589785719168    0.0 1016.61    -136.937228850517    -136.937228850517    -136.821329992710    -136.818740206991   0.0000   0.0000   0.0000   0.0000
   1071    0.002612239554454    0.0 1027.73    -136.938523070962    -136.938523070962    -136.821356447761    -136.818744208207   0.0000   0.0000   0.0000   0.0000
   1072    0.002642695039051    0.0 1041.47    -136.940125152014    -136.940125152014    -136.821391707144    -136.818749012105   0.0000   0.0000   0.0000   0.0000
   1073    0.002677333263432    0.0 1057.23    -136.941961030789    -136.941961030789    -136.821431481295    -136.818754148031   0.0000   0.0000   0.0000   0.0000
   1074    0.002714818529593    0.0 1074.30    -136.943949768161    -136.943949768161    -136.821474264234    -136.818759445704   0.0000   0.0000   0.0000   0.0000
   1075    0.002754032523168    0.0 1091.97    -136.946008286900    -136.946008286900    -136.821518439414    -136.818764406891   0.0000   0.0000   0.0000   0.0000
   1076    0.002791478555232    0.0 1109.58    -136.948057699484    -136.948057699484    -136.821560239924    -136.818768761369   0.0000   0.0000   0.0000   0.0000
   1077    0.002822236574631    0.0 1126.55    -136.950027693911    -136.950027693911    -136.821594618129    -136.818772381554   0.0000   0.0000   0.0000   0.0000
   1078    0.002844028541151    0.0 1142.41    -136.951859172587    -136.951859172587    -136.821619002515    -136.818774973974   0.0000   0.0000   0.0000   0.0000
   1079    0.002859576144140    0.0 1156.71    -136.953507182347    -136.953507182347    -136.821636087979    -136.818776511835   0.0000   0.0000   0.0000   0.0000
   1080    0.002873182797708    0.0 1169.17    -136.954941986653    -136.954941986653    -136.821650199608    -136.818777016811   0.0000   0.0000   0.0000   0.0000
   1081    0.002885591704833    0.0 1179.65    -136.956149009289    -136.956149009289    -136.821662348879    -136.818776757175   0.0000   0.0000   0.0000   0.0000
   1082    0.002893790894752    0.0 1188.17    -136.957126743003    -136.957126743003    -136.821669491659    -136.818775700764   0.0000   0.0000   0.0000   0.0000
   1083    0.002896261265364    0.0 1194.82    -136.957885524376    -136.957885524376    -136.821670198337    -136.818773937072   0.0000   0.0000   0.0000   0.0000
   1084    0.002895728561893    0.0 1199.75    -136.958445198698    -136.958445198698    -136.821667502868    -136.818771774306   0.0000   0.0000   0.0000   0.0000
   1085    0.002895695425429    0.0 1203.16    -136.958831555108    -136.958831555108    -136.821665125818    -136.818769430393   0.0000   0.0000   0.0000   0.0000
   1086    0.002896116324773    0.0 1205.29    -136.959073008505    -136.959073008505    -136.821663574665    -136.818767458340   0.0000   0.0000   0.0000   0.0000
   1087    0.002893855887349    0.0 1206.40    -136.959195167656    -136.959195167656    -136.821659767770    -136.818765911882   0.0000   0.0000   0.0000   0.0000
   1088    0.002887721142285    0.0 1206.66    -136.959217856713    -136.959217856713    -136.821652602452    -136.818764881310   0.0000   0.0000   0.0000   0.0000
   1089    0.002880175930540    0.0 1206.15    -136.959152203683    -136.959152203683    -136.821644899835    -136.818764723904   0.0000   0.0000   0.0000   0.0000
   1090    0.002873492931262    0.0 1204.84    -136.958996939051    -136.958996939051    -136.821639008325    -136.818765515394   0.0000   0.0000   0.0000   0.0000
   1091    0.002867358423373    0.0 1202.60    -136.958737360156    -136.958737360156    -136.821634653105    -136.818767294681   0.0000   0.0000   0.0000   0.0000
   1092    0.002860472544565    0.0 1199.20    -136.958345247202    -136.958345247202    -136.821630603499    -136.818770130955   0.0000   0.0000   0.0000   0.0000
   1093    0.002852134913044    0.0 1194.27    -136.957778951752    -136.957778951752    -136.821625898744    -136.818773763831   0.0000   0.0000   0.0000   0.0000
   1094    0.002841829108087    0.0 1187.38    -136.956986612539    -136.956986612539    -136.821619349925    -136.818777520817   0.0000   0.0000   0.0000   0.0000
   1095    0.002828081229928    0.0 1178.05    -136.955912993516    -136.955912993516    -136.821609330687    -136.818781249457   0.0000   0.0000   0.0000   0.0000
   1096    0.002807959781550    0.0 1165.84    -136.954504438849    -136.954504438849    -136.821592502281    -136.818784542500   0.0000   0.0000   0.0000   0.0000
   1097    0.002778742249064    0.0 1150.39    -136.952715753503    -136.952715753503    -136.821565462240    -136.818786719991   0.0000   0.0000   0.0000   0.0000
   1098    0.002738839925035    0.0 1131.46    -136.950518587310    -136.950518587310    -136.821526237123    -136.818787397198   0.0000   0.0000   0.0000   0.0000
   1099    0.002686425904576    0.0 1109.03    -136.947907511931    -136.947907511931    -136.821472524573    -136.818786098668   0.0000   0.0000   0.0000   0.0000

 * Physical Quantities at step:  1100

   from rhoofr: total integrated electronic density
   in g-space =     64.000000   in r-space =    64.000000


                total energy =     -136.94490547632 Hartree a.u.
              kinetic energy =       97.45428 Hartree a.u.
        electrostatic energy =     -185.29044 Hartree a.u.
                         esr =        0.01228 Hartree a.u.
                       eself =      242.55691 Hartree a.u.
      pseudopotential energy =       -9.31734 Hartree a.u.
  n-l pseudopotential energy =       -6.16347 Hartree a.u.
 exchange-correlation energy =      -33.62793 Hartree a.u.
           average potential =        0.00000 Hartree a.u.



   Eigenvalues (eV), kp =   1 , spin =  1

  -23.64  -23.27  -23.00  -22.88  -22.70  -22.57  -22.07  -21.25  -11.56  -11.44
  -11.07  -10.61  -10.53  -10.32   -9.35   -9.12   -8.28   -7.93   -7.35   -7.25
   -7.10   -6.83   -6.11   -5.93   -5.40   -5.32   -4.99   -4.88   -4.83   -4.58
   -4.50   -3.92
 
 
   CELL_PARAMETERS
   13.00000000    0.00000000    0.00000000
    0.00000000   13.00000000    0.00000000
    0.00000000    0.00000000   13.00000000

   System Density [g/cm^3] :              0.7351364820


   System Volume [A.U.^3] :           2197.0000000000


   Center of mass square displacement (a.u.):   0.000000

   ATOMIC_POSITIONS
   O       0.72459594656161E+01     0.31847893324467E+01     0.34715210452812E+01
   H       0.57739908189857E+01     0.41325831007659E+01     0.34911998699155E+01
   H       0.65423118369820E+01     0.15039068410294E+01     0.28571352201603E+01
   O       0.37220615662289E+01    -0.55883047011592E+01     0.19530511734143E+01
   H       0.55099283428013E+01    -0.45332252294222E+01     0.22361270296777E+01
   H       0.24078450740329E+01    -0.51062039166688E+01     0.29062875512945E+01
   O      -0.55135452547359E+01    -0.22989208858269E+01     0.34381431442159E+01
   H      -0.39162512413671E+01    -0.16840026027579E+01     0.30644964554316E+01
   H      -0.55397970611262E+01    -0.31418699033552E+01     0.53407910439393E+01
   O      -0.15060529288885E+01     0.59582818153391E+01     0.20441956040971E+01
   H      -0.30093822732037E+01     0.48095372315355E+01     0.27149144828529E+01
   H      -0.42154894351228E+00     0.47719593860406E+01     0.12409603480742E+01
   O       0.14532304817291E+01    -0.51534712853533E+01    -0.34149486256006E+01
   H       0.20824749110293E+01    -0.50397039140566E+01    -0.18254978339284E+01
   H       0.21840811980999E+01    -0.41965706174541E+01    -0.49470235266923E+01
   O      -0.50230955048707E+01    -0.41215002885272E+01    -0.48769030032754E+01
   H      -0.50284902164666E+01    -0.26930704830472E+01    -0.36787550901738E+01
   H      -0.47522721124362E+01    -0.57156974741325E+01    -0.33979586761489E+01
   O      -0.42404908826794E+01     0.53036276343329E+01    -0.19325990296764E+01
   H      -0.37967655183077E+01     0.61623155059927E+01     0.10810448495189E-01
   H      -0.59913577389720E+01     0.50254547943723E+01    -0.18794343201715E+01
   O       0.39927237161405E+01     0.26297647719176E+01    -0.35656108154712E+01
   H       0.23632050966036E+01     0.26061900763862E+01    -0.24195596357161E+01
   H       0.35157796508281E+01     0.44593831253038E+01    -0.42789632636722E+01
 
   ATOMIC_VELOCITIES
   O       0.52540065387563E-03    -0.18218858175867E-04     0.52647447384002E-04
   H      -0.10161978332621E-02    -0.10325106244497E-02    -0.53256645847603E-03
   H       0.25102983048199E-02     0.56009780357856E-03    -0.20902642107879E-03
   O      -0.26915707904082E-03    -0.18573402506586E-03     0.46534890544645E-03
   H       0.18121272981408E-02     0.17026356609864E-03    -0.13715291958833E-02
   H       0.49822981812100E-03    -0.69646695710708E-03    -0.46194935449355E-02
   O       0.37233366792205E-04     0.26007538729313E-03    -0.13226797523838E-03
   H      -0.21321185279106E-02    -0.52502166942470E-03     0.80466404708857E-04
   H      -0.34681729748432E-03     0.14537220625725E-02    -0.30626758271930E-03
   O       0.93675498327085E-04     0.39872504176575E-04     0.10247306656051E-03
   H      -0.15463888744342E-03     0.16173903077623E-02    -0.40894057672833E-03
   H       0.17554058277553E-02    -0.55292538991571E-03    -0.27499989144265E-02
   O      -0.32362915606102E-03    -0.22313926955425E-04    -0.15589516251578E-03
   H      -0.14180453444342E-02     0.65903603352773E-03     0.32909801250442E-02
   H      -0.44031341433232E-03     0.64818432727969E-03    -0.15464825674889E-02
   O      -0.12587782713821E-03     0.18342873192100E-03    -0.18652018476594E-03
   H       0.21728381054517E-03     0.22287130288527E-02     0.19914410684060E-02
   H      -0.91610423633936E-03    -0.10030482574583E-02     0.84406473585990E-03
   O      -0.32651716837528E-03    -0.18355844145407E-04     0.29825550563015E-04
   H       0.14139414790903E-02     0.11496111214533E-02     0.14205676562292E-02
   H       0.29081591300738E-02    -0.13211825543092E-02     0.25942567417088E-03
   O       0.27612480619026E-03    -0.28132944780913E-03    -0.54215710797234E-04
   H      -0.17304568347990E-02     0.13803243981976E-03     0.36865475110754E-03
   H      -0.11709423123965E-02    -0.28180269376802E-02     0.15615940354261E-02
 
   Forces acting on atoms (au):
   O       0.20718124837330E-01    -0.54554640780668E-01    -0.13631573997217E-01
   H      -0.40020559618946E-01     0.38859948133087E-01     0.11454926677790E-02
   H       0.22685621401050E-01     0.21863848496191E-01     0.14595844010625E-01
   O       0.11772166012303E+00    -0.12282312070188E-01    -0.54212062125269E-01
   H      -0.58923560414256E-01    -0.14099875333957E-01     0.21381419115976E-02
   H      -0.60898860963388E-01     0.33438176883673E-01     0.54101863637333E-01
   O      -0.56053315853406E-01    -0.34534437868259E-01     0.35559050454660E-01
   H       0.42267862253744E-01     0.72610906332454E-02    -0.34957687612843E-02
   H       0.15344770483100E-01     0.19527512100725E-01    -0.26755531623336E-01
   O      -0.47816809388775E-01    -0.91919541456045E-02     0.28069670235557E-01
   H       0.31374820605926E-01     0.17576834508250E-01    -0.32941767689899E-02
   H       0.10723228673788E-01    -0.10132480651400E-01    -0.10523277967935E-01
   O      -0.34090139754611E-01    -0.53161573997003E-02    -0.11320952505730E+00
   H       0.46051008093866E-01     0.22193798388989E-01     0.61278601112579E-01
   H      -0.72132271873864E-02    -0.17613668062221E-01     0.60968347285037E-01
   O      -0.70805170764752E-02     0.35295542755711E-02     0.24846094266711E-01
   H      -0.13949932170786E-02    -0.54974924611067E-02    -0.18187659355702E-01
   H       0.11926873819502E-01     0.16640382395387E-01    -0.34254502971864E-01
   O       0.28657948681473E-01     0.37411007387965E-01     0.50913773590191E-01
   H       0.48403813721777E-02    -0.28183015938603E-01    -0.61708791383203E-01
   H      -0.40440415423820E-01    -0.24333986036998E-01     0.52472373722915E-02
   O      -0.62127886903350E-01     0.56852227969553E-01     0.14334643614856E-01
   H       0.47084307687298E-01    -0.82931491685356E-02    -0.30114789880894E-01
   H       0.15689031328107E-01    -0.47347615536551E-01     0.15339020931653E-01
 


   Partial temperatures (for each ionic specie) 
   Species  Temp (K)   Mean Square Displacement (a.u.)
        1   4.57E+02     4.1235E+00
        2   1.40E+03     7.8796E+00
 
  nfi     ekinc              temph  tempp     etot                 enthal               econs                econt              vnhh    xnhh0   vnhp    xnhp0
   1100    0.002619842968554    0.0 1083.31    -136.944905476321    -136.944905476321    -136.821402585027    -136.818782742059   0.0000   0.0000   0.0000   0.0000

   writing restart file (with schema): ./h2o_51.save/
     restart      :      0.04s CPU      0.09s WALL (       2 calls)


   Averaged Physical Quantities
                      accumulated      this run
   ekinc         :        0.00254       0.00280 (AU)
   ekin          :       97.69884      97.70032 (AU)
   epot          :     -228.43340    -228.43501 (AU)
   total energy  :     -136.94667    -136.94826 (AU)
   temperature   :     1095.88528    1111.33297 (K )
   enthalpy      :     -124.49842    -136.94826 (AU)
   econs         :     -136.82173    -136.82156 (AU)
   pressure      :        0.00000       0.00000 (Gpa)
   volume        :     2197.00000    2197.00000 (AU)



     Called by MAIN_LOOP:
     initialize   :      0.32s CPU      0.46s WALL (       1 calls)
     main_loop    :     34.44s CPU     36.96s WALL (    1000 calls)
     cpr_total    :     34.65s CPU     37.63s WALL (       1 calls)

     Called by INIT_RUN:
     init_readfil :      0.08s CPU      0.17s WALL (       1 calls)

     Called by CPR:
     cpr_md       :     34.64s CPU     37.63s WALL (    1000 calls)
     move_electro :     26.66s CPU     27.46s WALL (    1000 calls)

     Called by move_electrons:
     rhoofr       :      5.69s CPU      5.97s WALL (    1000 calls)
     vofrho       :     10.29s CPU     10.39s WALL (    1000 calls)
     dforce       :      8.37s CPU      8.74s WALL (   16000 calls)
     calphi       :      0.11s CPU      0.11s WALL (    1000 calls)
     nlfl         :      0.03s CPU      0.04s WALL (    1000 calls)

     Called by ortho:
     ortho_iter   :      2.90s CPU      2.91s WALL (    1000 calls)
     rsg          :      2.05s CPU      2.10s WALL (    1000 calls)
     rhoset       :      0.49s CPU      0.49s WALL (    1000 calls)
     sigset       :      0.26s CPU      0.27s WALL (    1000 calls)
     tauset       :      0.24s CPU      0.24s WALL (    1000 calls)
     ortho        :      5.96s CPU      6.03s WALL (    1000 calls)
     updatc       :      0.34s CPU      0.35s WALL (    1000 calls)

     Small boxes:

     Low-level routines:
     prefor       :      0.49s CPU      0.50s WALL (    2001 calls)
     nlfq         :      1.63s CPU      1.68s WALL (    1000 calls)
     nlsm1        :      0.60s CPU      0.60s WALL (    1001 calls)
     nlsm2        :      1.57s CPU      1.63s WALL (    1000 calls)
     fft          :      4.79s CPU      4.85s WALL (    8002 calls)
     ffts         :      1.14s CPU      1.17s WALL (    2000 calls)
     fftw         :     10.83s CPU     11.30s WALL (   48000 calls)
     fft_scatt_xy :      1.16s CPU      1.19s WALL (   58002 calls)
     fft_scatt_yz :      9.16s CPU      9.44s WALL (   58002 calls)
     fft_scatt_tg :      0.20s CPU      0.21s WALL (   48000 calls)
     betagx       :      0.08s CPU      0.08s WALL (       1 calls)
     qradx        :      0.00s CPU      0.00s WALL (       1 calls)
     nlinit       :      0.17s CPU      0.17s WALL (       1 calls)
     init_dim     :      0.01s CPU      0.01s WALL (       1 calls)
     newnlinit    :      0.04s CPU      0.04s WALL (       1 calls)
     from_restart :      0.04s CPU      0.04s WALL (       1 calls)
     strucf       :      0.20s CPU      0.26s WALL (    1001 calls)
     calbec       :      0.60s CPU      0.60s WALL (    1001 calls)
 
 
     CP           :     35.01s CPU     38.22s WALL

 
   This run was terminated on:  11:24: 8  26May2021            

=------------------------------------------------------------------------------=
   JOB DONE.
=------------------------------------------------------------------------------=
0
0
0
0
0
0
0
0
0
0
0
0
0
0
0
0
0
0
0
0
